LAMMPS data file. CGCMM style. atom_style full generated by VMD/TopoTools v1.7 on Thu Sep 13 10:22:15 EDT 2018
 2144 atoms
 1876 bonds
 1608 angles
 1340 dihedrals
 0 impropers
 2 atom types
 1 bond types
 2 angle types
 2 dihedral types
 0 improper types
 7.036046 32.876046  xlo xhi
 7.133327 32.973327  ylo yhi
 7.080738 32.920738  zlo zhi

# Pair Coeffs
#
# 1  CH2
# 2  CH3

# Bond Coeffs
#
# 1  

# Angle Coeffs
#
# 1  CH2-CH2-CH2
# 2  CH2-CH2-CH3

# Dihedral Coeffs
#
# 1  CH2-CH2-CH2-CH2
# 2  CH2-CH2-CH2-CH3

 Masses

 1 14.027000 # CH2
 2 15.035000 # CH3

 Atoms # full

1 1 2 0.000000 12.641852 29.430573 30.265181 # CH3 
2 1 1 0.000000 11.151095 29.604031 29.919994 # CH2 
3 1 1 0.000000 10.350987 28.288193 29.919722 # CH2 
4 1 1 0.000000 8.860230 28.461653 29.574533 # CH2 
5 1 1 0.000000 8.060123 27.145815 29.574261 # CH2 
6 1 1 0.000000 6.569365 27.319275 29.229073 # CH2 
7 1 1 0.000000 5.769258 26.003435 29.228800 # CH2 
8 1 2 0.000000 4.278501 26.176895 28.883612 # CH3 
9 1 2 0.000000 12.251129 38.590736 9.482451 # CH3 
10 1 1 0.000000 12.662527 38.047005 8.101617 # CH2 
11 1 1 0.000000 11.509224 37.395782 7.315866 # CH2 
12 1 1 0.000000 11.920621 36.852047 5.935031 # CH2 
13 1 1 0.000000 10.767319 36.200825 5.149282 # CH2 
14 1 1 0.000000 11.178716 35.657093 3.768446 # CH2 
15 1 1 0.000000 10.025413 35.005871 2.982696 # CH2 
16 1 2 0.000000 10.436811 34.462135 1.601862 # CH3 
17 1 2 0.000000 28.957794 5.834293 12.437431 # CH3 
18 1 1 0.000000 27.751307 4.969154 12.846719 # CH2 
19 1 1 0.000000 27.157385 5.332301 14.220394 # CH2 
20 1 1 0.000000 25.950895 4.467162 14.629683 # CH2 
21 1 1 0.000000 25.356974 4.830309 16.003357 # CH2 
22 1 1 0.000000 24.150484 3.965169 16.412645 # CH2 
23 1 1 0.000000 23.556562 4.328316 17.786320 # CH2 
24 1 2 0.000000 22.350073 3.463177 18.195608 # CH3 
25 1 2 0.000000 17.860971 9.407917 38.110821 # CH3 
26 1 1 0.000000 18.137032 8.192604 37.206165 # CH2 
27 1 1 0.000000 19.633310 7.909457 36.976860 # CH2 
28 1 1 0.000000 19.909370 6.694143 36.072201 # CH2 
29 1 1 0.000000 21.405647 6.410997 35.842899 # CH2 
30 1 1 0.000000 21.681707 5.195683 34.938240 # CH2 
31 1 1 0.000000 23.177986 4.912536 34.708935 # CH2 
32 1 2 0.000000 23.454046 3.697223 33.804279 # CH3 
33 1 2 0.000000 31.334320 25.756977 32.526352 # CH3 
34 1 1 0.000000 31.760979 25.925627 31.056276 # CH2 
35 1 1 0.000000 31.976034 27.389891 30.630505 # CH2 
36 1 1 0.000000 32.402695 27.558538 29.160431 # CH2 
37 1 1 0.000000 32.617748 29.022802 28.734659 # CH2 
38 1 1 0.000000 33.044407 29.191452 27.264585 # CH2 
39 1 1 0.000000 33.259464 30.655718 26.838814 # CH2 
40 1 2 0.000000 33.686123 30.824366 25.368740 # CH3 
41 1 2 0.000000 39.000000 9.719833 28.919107 # CH3 
42 1 1 0.000000 37.626354 10.020965 28.291397 # CH2 
43 1 1 0.000000 37.254448 9.090363 27.122095 # CH2 
44 1 1 0.000000 35.880802 9.391494 26.494387 # CH2 
45 1 1 0.000000 35.508896 8.460893 25.325087 # CH2 
46 1 1 0.000000 34.135250 8.762024 24.697376 # CH2 
47 1 1 0.000000 33.763344 7.831422 23.528074 # CH2 
48 1 2 0.000000 32.389698 8.132553 22.900366 # CH3 
49 1 2 0.000000 21.088678 3.060182 26.240561 # CH3 
50 1 1 0.000000 20.142395 3.682467 25.197056 # CH2 
51 1 1 0.000000 19.646292 5.093445 25.563963 # CH2 
52 1 1 0.000000 18.700006 5.715731 24.520454 # CH2 
53 1 1 0.000000 18.203903 7.126709 24.887362 # CH2 
54 1 1 0.000000 17.257618 7.748995 23.843855 # CH2 
55 1 1 0.000000 16.761515 9.159973 24.210762 # CH2 
56 1 2 0.000000 15.815230 9.782258 23.167255 # CH3 
57 1 2 0.000000 6.939910 28.314293 37.181583 # CH3 
58 1 1 0.000000 6.567676 28.487921 35.697369 # CH2 
59 1 1 0.000000 7.536131 29.390093 34.910107 # CH2 
60 1 1 0.000000 7.163897 29.563721 33.425892 # CH2 
61 1 1 0.000000 8.132352 30.465893 32.638630 # CH2 
62 1 1 0.000000 7.760118 30.639521 31.154413 # CH2 
63 1 1 0.000000 8.728573 31.541693 30.367151 # CH2 
64 1 2 0.000000 8.356339 31.715321 28.882936 # CH3 
65 1 2 0.000000 24.239639 12.309506 3.932352 # CH3 
66 1 1 0.000000 25.726603 12.675958 3.770325 # CH2 
67 1 1 0.000000 26.692499 11.506236 4.035644 # CH2 
68 1 1 0.000000 28.179462 11.872687 3.873617 # CH2 
69 1 1 0.000000 29.145359 10.702965 4.138936 # CH2 
70 1 1 0.000000 30.632322 11.069417 3.976909 # CH2 
71 1 1 0.000000 31.598219 9.899694 4.242228 # CH2 
72 1 2 0.000000 33.085182 10.266146 4.080201 # CH3 
73 1 2 0.000000 26.742687 30.102106 22.706896 # CH3 
74 1 1 0.000000 27.119219 31.388449 23.465277 # CH2 
75 1 1 0.000000 27.911087 31.141569 24.762812 # CH2 
76 1 1 0.000000 28.287619 32.427914 25.521194 # CH2 
77 1 1 0.000000 29.079487 32.181034 26.818727 # CH2 
78 1 1 0.000000 29.456018 33.467377 27.577108 # CH2 
79 1 1 0.000000 30.247887 33.220497 28.874643 # CH2 
80 1 2 0.000000 30.624416 34.506844 29.633024 # CH3 
81 1 2 0.000000 33.820152 22.971842 32.897167 # CH3 
82 1 1 0.000000 34.101593 24.433151 32.500980 # CH2 
83 1 1 0.000000 33.422657 25.471409 33.413490 # CH2 
84 1 1 0.000000 33.704094 26.932720 33.017303 # CH2 
85 1 1 0.000000 33.025158 27.970976 33.929810 # CH2 
86 1 1 0.000000 33.306595 29.432287 33.533627 # CH2 
87 1 1 0.000000 32.627659 30.470545 34.446133 # CH2 
88 1 2 0.000000 32.909096 31.931854 34.049950 # CH3 
89 1 2 0.000000 18.710344 17.616659 22.724968 # CH3 
90 1 1 0.000000 19.813826 17.475037 21.660135 # CH2 
91 1 1 0.000000 19.807781 16.120110 20.928192 # CH2 
92 1 1 0.000000 20.911264 15.978485 19.863359 # CH2 
93 1 1 0.000000 20.905218 14.623560 19.131418 # CH2 
94 1 1 0.000000 22.008701 14.481935 18.066586 # CH2 
95 1 1 0.000000 22.002657 13.127009 17.334642 # CH2 
96 1 2 0.000000 23.106138 12.985385 16.269810 # CH3 
97 1 2 0.000000 13.660845 1.528593 17.667437 # CH3 
98 1 1 0.000000 12.296100 1.109951 18.245199 # CH2 
99 1 1 0.000000 11.112600 1.947454 17.726049 # CH2 
100 1 1 0.000000 9.747855 1.528812 18.303814 # CH2 
101 1 1 0.000000 8.564355 2.366315 17.784664 # CH2 
102 1 1 0.000000 7.199610 1.947673 18.362427 # CH2 
103 1 1 0.000000 6.016109 2.785177 17.843279 # CH2 
104 1 2 0.000000 4.651365 2.366534 18.421041 # CH3 
105 1 2 0.000000 14.312667 18.593546 12.745041 # CH3 
106 1 1 0.000000 12.791046 18.368597 12.820309 # CH2 
107 1 1 0.000000 12.254388 17.363789 11.783988 # CH2 
108 1 1 0.000000 10.732767 17.138840 11.859256 # CH2 
109 1 1 0.000000 10.196110 16.134033 10.822936 # CH2 
110 1 1 0.000000 8.674488 15.909084 10.898204 # CH2 
111 1 1 0.000000 8.137831 14.904276 9.861883 # CH2 
112 1 2 0.000000 6.616210 14.679327 9.937152 # CH3 
113 1 2 0.000000 3.014599 14.209612 36.521252 # CH3 
114 1 1 0.000000 3.603981 15.632361 36.524860 # CH2 
115 1 1 0.000000 2.543954 16.749475 36.525967 # CH2 
116 1 1 0.000000 3.133335 18.172226 36.529579 # CH2 
117 1 1 0.000000 2.073309 19.289337 36.530685 # CH2 
118 1 1 0.000000 2.662690 20.712088 36.534298 # CH2 
119 1 1 0.000000 1.602664 21.829201 36.535404 # CH2 
120 1 2 0.000000 2.192045 23.251949 36.539017 # CH3 
121 1 2 0.000000 12.459570 23.914871 19.268589 # CH3 
122 1 1 0.000000 12.601009 24.780830 20.534176 # CH2 
123 1 1 0.000000 11.327863 24.839315 21.398628 # CH2 
124 1 1 0.000000 11.469301 25.705275 22.664217 # CH2 
125 1 1 0.000000 10.196156 25.763762 23.528669 # CH2 
126 1 1 0.000000 10.337595 26.629721 24.794256 # CH2 
127 1 1 0.000000 9.064449 26.688206 25.658710 # CH2 
128 1 2 0.000000 9.205888 27.554165 26.924297 # CH3 
129 1 2 0.000000 38.089680 29.821268 17.730366 # CH3 
130 1 1 0.000000 36.647625 29.295715 17.856325 # CH2 
131 1 1 0.000000 35.567390 30.360291 17.589167 # CH2 
132 1 1 0.000000 34.125332 29.834738 17.715124 # CH2 
133 1 1 0.000000 33.045101 30.899311 17.447968 # CH2 
134 1 1 0.000000 31.603043 30.373758 17.573925 # CH2 
135 1 1 0.000000 30.522808 31.438334 17.306767 # CH2 
136 1 2 0.000000 29.080751 30.912781 17.432726 # CH3 
137 1 2 0.000000 19.509937 14.438228 36.192539 # CH3 
138 1 1 0.000000 18.091990 15.009254 36.379498 # CH2 
139 1 1 0.000000 17.446472 15.521543 35.078548 # CH2 
140 1 1 0.000000 16.028524 16.092569 35.265507 # CH2 
141 1 1 0.000000 15.383007 16.604858 33.964558 # CH2 
142 1 1 0.000000 13.965059 17.175884 34.151516 # CH2 
143 1 1 0.000000 13.319542 17.688173 32.850567 # CH2 
144 1 2 0.000000 11.901595 18.259199 33.037525 # CH3 
145 1 2 0.000000 33.742832 4.245358 25.984135 # CH3 
146 1 1 0.000000 33.718418 5.784976 25.960066 # CH2 
147 1 1 0.000000 32.447872 6.400970 26.574768 # CH2 
148 1 1 0.000000 32.423458 7.940589 26.550701 # CH2 
149 1 1 0.000000 31.152912 8.556582 27.165403 # CH2 
150 1 1 0.000000 31.128500 10.096200 27.141336 # CH2 
151 1 1 0.000000 29.857952 10.712194 27.756039 # CH2 
152 1 2 0.000000 29.833542 12.251812 27.731972 # CH3 
153 1 2 0.000000 27.749544 28.900131 18.072405 # CH3 
154 1 1 0.000000 28.432722 27.529312 17.912039 # CH2 
155 1 1 0.000000 27.526047 26.445374 17.299978 # CH2 
156 1 1 0.000000 28.209227 25.074553 17.139614 # CH2 
157 1 1 0.000000 27.302549 23.990616 16.527555 # CH2 
158 1 1 0.000000 27.985727 22.619793 16.367189 # CH2 
159 1 1 0.000000 27.079052 21.535854 15.755130 # CH2 
160 1 2 0.000000 27.762232 20.165035 15.594765 # CH3 
161 1 2 0.000000 29.865675 34.563084 18.045010 # CH3 
162 1 1 0.000000 28.379368 34.165367 17.979334 # CH2 
163 1 1 0.000000 28.106009 32.698582 18.360662 # CH2 
164 1 1 0.000000 26.619701 32.300865 18.294987 # CH2 
165 1 1 0.000000 26.346340 30.834080 18.676315 # CH2 
166 1 1 0.000000 24.860035 30.436363 18.610640 # CH2 
167 1 1 0.000000 24.586674 28.969576 18.991968 # CH2 
168 1 2 0.000000 23.100367 28.571861 18.926292 # CH3 
169 1 2 0.000000 24.593945 18.935480 23.873468 # CH3 
170 1 1 0.000000 24.819216 17.817881 22.838181 # CH2 
171 1 1 0.000000 25.928474 16.821510 23.223400 # CH2 
172 1 1 0.000000 26.153746 15.703908 22.188114 # CH2 
173 1 1 0.000000 27.263004 14.707539 22.573334 # CH2 
174 1 1 0.000000 27.488276 13.589937 21.538048 # CH2 
175 1 1 0.000000 28.597534 12.593567 21.923267 # CH2 
176 1 2 0.000000 28.822805 11.475966 20.887980 # CH3 
177 1 2 0.000000 24.988581 23.110151 2.068885 # CH3 
178 1 1 0.000000 24.019165 22.297436 2.947136 # CH2 
179 1 1 0.000000 23.425669 23.091774 4.125435 # CH2 
180 1 1 0.000000 22.456251 22.279058 5.003687 # CH2 
181 1 1 0.000000 21.862755 23.073397 6.181985 # CH2 
182 1 1 0.000000 20.893339 22.260679 7.060237 # CH2 
183 1 1 0.000000 20.299841 23.055017 8.238536 # CH2 
184 1 2 0.000000 19.330425 22.242302 9.116787 # CH3 
185 1 2 0.000000 30.959064 27.802114 38.325153 # CH3 
186 1 1 0.000000 30.130352 29.070152 38.047817 # CH2 
187 1 1 0.000000 28.939837 28.844925 37.097267 # CH2 
188 1 1 0.000000 28.111124 30.112963 36.819931 # CH2 
189 1 1 0.000000 26.920610 29.887733 35.869381 # CH2 
190 1 1 0.000000 26.091896 31.155771 35.592049 # CH2 
191 1 1 0.000000 24.901382 30.930542 34.641495 # CH2 
192 1 2 0.000000 24.072670 32.198582 34.364162 # CH3 
193 1 2 0.000000 19.928909 32.807652 21.692688 # CH3 
194 1 1 0.000000 21.121948 33.327637 22.516018 # CH2 
195 1 1 0.000000 20.761093 33.725304 23.959362 # CH2 
196 1 1 0.000000 21.954132 34.245293 24.782692 # CH2 
197 1 1 0.000000 21.593279 34.642960 26.226036 # CH2 
198 1 1 0.000000 22.786318 35.162945 27.049366 # CH2 
199 1 1 0.000000 22.425465 35.560616 28.492710 # CH2 
200 1 2 0.000000 23.618504 36.080601 29.316040 # CH3 
201 1 2 0.000000 29.888683 19.381618 24.350021 # CH3 
202 1 1 0.000000 30.138304 18.467188 25.563738 # CH2 
203 1 1 0.000000 31.323004 18.905140 26.444807 # CH2 
204 1 1 0.000000 31.572622 17.990709 27.658524 # CH2 
205 1 1 0.000000 32.757324 18.428659 28.539593 # CH2 
206 1 1 0.000000 33.006943 17.514231 29.753309 # CH2 
207 1 1 0.000000 34.191643 17.952181 30.634378 # CH2 
208 1 2 0.000000 34.441261 17.037750 31.848095 # CH3 
209 1 2 0.000000 32.286102 34.639942 26.618441 # CH3 
210 1 1 0.000000 32.042442 33.509243 27.635174 # CH2 
211 1 1 0.000000 33.323765 32.990040 28.313585 # CH2 
212 1 1 0.000000 33.080101 31.859341 29.330318 # CH2 
213 1 1 0.000000 34.361423 31.340137 30.008730 # CH2 
214 1 1 0.000000 34.117764 30.209436 31.025463 # CH2 
215 1 1 0.000000 35.399086 29.690233 31.703875 # CH2 
216 1 2 0.000000 35.155422 28.559534 32.720608 # CH3 
217 1 2 0.000000 16.167166 19.280357 24.586437 # CH3 
218 1 1 0.000000 17.697666 19.354443 24.432585 # CH2 
219 1 1 0.000000 18.433353 18.072104 24.863827 # CH2 
220 1 1 0.000000 19.963856 18.146189 24.709972 # CH2 
221 1 1 0.000000 20.699541 16.863850 25.141216 # CH2 
222 1 1 0.000000 22.230045 16.937935 24.987364 # CH2 
223 1 1 0.000000 22.965731 15.655595 25.418606 # CH2 
224 1 2 0.000000 24.496233 15.729681 25.264751 # CH3 
225 1 2 0.000000 33.286900 30.558111 10.269627 # CH3 
226 1 1 0.000000 34.440639 31.574993 10.189395 # CH2 
227 1 1 0.000000 34.008442 33.033085 10.431817 # CH2 
228 1 1 0.000000 35.162182 34.049969 10.351586 # CH2 
229 1 1 0.000000 34.729980 35.508060 10.594008 # CH2 
230 1 1 0.000000 35.883720 36.524944 10.513776 # CH2 
231 1 1 0.000000 35.451523 37.983040 10.756198 # CH2 
232 1 2 0.000000 36.605259 38.999920 10.675966 # CH3 
233 1 2 0.000000 11.834118 9.137723 28.669250 # CH3 
234 1 1 0.000000 11.318457 7.755193 29.110050 # CH2 
235 1 1 0.000000 10.692726 6.927935 27.971762 # CH2 
236 1 1 0.000000 10.177065 5.545405 28.412560 # CH2 
237 1 1 0.000000 9.551334 4.718147 27.274269 # CH2 
238 1 1 0.000000 9.035673 3.335617 27.715069 # CH2 
239 1 1 0.000000 8.409942 2.508358 26.576778 # CH2 
240 1 2 0.000000 7.894281 1.125829 27.017578 # CH3 
241 1 2 0.000000 15.173438 3.546071 37.647610 # CH3 
242 1 1 0.000000 16.528383 3.743495 36.942806 # CH2 
243 1 1 0.000000 16.515661 4.833559 35.855057 # CH2 
244 1 1 0.000000 17.870607 5.030983 35.150253 # CH2 
245 1 1 0.000000 17.857885 6.121047 34.062504 # CH2 
246 1 1 0.000000 19.212830 6.318471 33.357700 # CH2 
247 1 1 0.000000 19.200108 7.408535 32.269951 # CH2 
248 1 2 0.000000 20.555054 7.605959 31.565147 # CH3 
249 1 2 0.000000 3.097692 27.024109 16.106976 # CH3 
250 1 1 0.000000 3.821668 25.858206 15.408313 # CH2 
251 1 1 0.000000 4.337137 26.196571 13.997143 # CH2 
252 1 1 0.000000 5.061113 25.030668 13.298480 # CH2 
253 1 1 0.000000 5.576583 25.369036 11.887311 # CH2 
254 1 1 0.000000 6.300559 24.203133 11.188648 # CH2 
255 1 1 0.000000 6.816028 24.541498 9.777479 # CH2 
256 1 2 0.000000 7.540004 23.375597 9.078816 # CH3 
257 1 2 0.000000 25.499336 4.103355 28.843359 # CH3 
258 1 1 0.000000 26.833536 4.377774 28.124886 # CH2 
259 1 1 0.000000 28.075686 3.932613 28.918926 # CH2 
260 1 1 0.000000 29.409885 4.207032 28.200455 # CH2 
261 1 1 0.000000 30.652033 3.761871 28.994495 # CH2 
262 1 1 0.000000 31.986235 4.036289 28.276020 # CH2 
263 1 1 0.000000 33.228382 3.591129 29.070063 # CH2 
264 1 2 0.000000 34.562580 3.865547 28.351589 # CH3 
265 1 2 0.000000 28.350214 31.355446 15.400992 # CH3 
266 1 1 0.000000 28.388474 30.002850 14.665725 # CH2 
267 1 1 0.000000 29.048624 30.063955 13.275736 # CH2 
268 1 1 0.000000 29.086884 28.711359 12.540469 # CH2 
269 1 1 0.000000 29.747034 28.772467 11.150481 # CH2 
270 1 1 0.000000 29.785294 27.419868 10.415214 # CH2 
271 1 1 0.000000 30.445444 27.480976 9.025225 # CH2 
272 1 2 0.000000 30.483704 26.128380 8.289959 # CH3 
273 1 2 0.000000 16.065273 15.472833 27.277090 # CH3 
274 1 1 0.000000 17.552805 15.100387 27.418982 # CH2 
275 1 1 0.000000 18.407564 16.184364 28.101606 # CH2 
276 1 1 0.000000 19.895096 15.811918 28.243498 # CH2 
277 1 1 0.000000 20.749855 16.895897 28.926123 # CH2 
278 1 1 0.000000 22.237387 16.523451 29.068012 # CH2 
279 1 1 0.000000 23.092148 17.607428 29.750639 # CH2 
280 1 2 0.000000 24.579678 17.234982 29.892529 # CH3 
281 1 2 0.000000 32.743870 23.826002 38.958565 # CH3 
282 1 1 0.000000 31.774525 24.921030 38.475986 # CH2 
283 1 1 0.000000 31.584185 24.960192 36.948296 # CH2 
284 1 1 0.000000 30.614838 26.055220 36.465717 # CH2 
285 1 1 0.000000 30.424500 26.094379 34.938026 # CH2 
286 1 1 0.000000 29.455154 27.189407 34.455448 # CH2 
287 1 1 0.000000 29.264814 27.228569 32.927757 # CH2 
288 1 2 0.000000 28.295469 28.323597 32.445179 # CH3 
289 1 2 0.000000 24.930058 10.361473 4.686385 # CH3 
290 1 1 0.000000 23.690584 9.481442 4.933057 # CH2 
291 1 1 0.000000 23.995749 7.973316 4.996548 # CH2 
292 1 1 0.000000 22.756273 7.093285 5.243220 # CH2 
293 1 1 0.000000 23.061438 5.585159 5.306711 # CH2 
294 1 1 0.000000 21.821962 4.705128 5.553383 # CH2 
295 1 1 0.000000 22.127127 3.197001 5.616875 # CH2 
296 1 2 0.000000 20.887651 2.316971 5.863546 # CH3 
297 1 2 0.000000 17.716162 26.551508 20.832422 # CH3 
298 1 1 0.000000 18.373150 26.792543 19.460609 # CH2 
299 1 1 0.000000 18.131605 28.202162 18.889439 # CH2 
300 1 1 0.000000 18.788591 28.443197 17.517626 # CH2 
301 1 1 0.000000 18.547049 29.852814 16.946457 # CH2 
302 1 1 0.000000 19.204035 30.093851 15.574643 # CH2 
303 1 1 0.000000 18.962492 31.503468 15.003472 # CH2 
304 1 2 0.000000 19.619478 31.744505 13.631660 # CH3 
305 1 2 0.000000 29.904299 2.440821 6.494757 # CH3 
306 1 1 0.000000 30.881453 2.909922 7.588699 # CH2 
307 1 1 0.000000 32.131550 3.627270 7.046231 # CH2 
308 1 1 0.000000 33.108704 4.096373 8.140174 # CH2 
309 1 1 0.000000 34.358799 4.813720 7.597705 # CH2 
310 1 1 0.000000 35.335957 5.282822 8.691649 # CH2 
311 1 1 0.000000 36.586052 6.000170 8.149180 # CH2 
312 1 2 0.000000 37.563206 6.469272 9.243123 # CH3 
313 1 2 0.000000 8.406106 11.368624 6.037367 # CH3 
314 1 1 0.000000 7.277602 11.342540 7.084935 # CH2 
315 1 1 0.000000 7.543682 10.394212 8.268774 # CH2 
316 1 1 0.000000 6.415178 10.368128 9.316343 # CH2 
317 1 1 0.000000 6.681257 9.419800 10.500181 # CH2 
318 1 1 0.000000 5.552754 9.393716 11.547750 # CH2 
319 1 1 0.000000 5.818833 8.445387 12.731589 # CH2 
320 1 2 0.000000 4.690330 8.419303 13.779157 # CH3 
321 1 2 0.000000 31.029831 30.512331 15.325098 # CH3 
322 1 1 0.000000 31.320288 29.085609 14.823402 # CH2 
323 1 1 0.000000 32.819138 28.772312 14.659407 # CH2 
324 1 1 0.000000 33.109596 27.345589 14.157711 # CH2 
325 1 1 0.000000 34.608444 27.032291 13.993715 # CH2 
326 1 1 0.000000 34.898903 25.605570 13.492019 # CH2 
327 1 1 0.000000 36.397751 25.292273 13.328024 # CH2 
328 1 2 0.000000 36.688210 23.865549 12.826328 # CH3 
329 1 2 0.000000 21.488327 13.923814 7.648829 # CH3 
330 1 1 0.000000 20.728544 15.222656 7.976451 # CH2 
331 1 1 0.000000 21.609091 16.324472 8.594705 # CH2 
332 1 1 0.000000 20.849306 17.623318 8.922326 # CH2 
333 1 1 0.000000 21.729855 18.725134 9.540580 # CH2 
334 1 1 0.000000 20.970072 20.023977 9.868202 # CH2 
335 1 1 0.000000 21.850616 21.125793 10.486455 # CH2 
336 1 2 0.000000 21.090834 22.424637 10.814077 # CH3 
337 1 2 0.000000 17.639891 16.409931 10.500700 # CH3 
338 1 1 0.000000 17.125034 17.860147 10.442445 # CH2 
339 1 1 0.000000 15.807831 18.026320 9.662084 # CH2 
340 1 1 0.000000 15.292974 19.476538 9.603828 # CH2 
341 1 1 0.000000 13.975772 19.642710 8.823467 # CH2 
342 1 1 0.000000 13.460915 21.092926 8.765212 # CH2 
343 1 1 0.000000 12.143712 21.259098 7.984851 # CH2 
344 1 2 0.000000 11.628856 22.709316 7.926596 # CH3 
345 1 2 0.000000 37.289253 26.137541 16.501299 # CH3 
346 1 1 0.000000 36.049625 25.265715 16.227736 # CH2 
347 1 1 0.000000 34.742580 26.065660 16.075010 # CH2 
348 1 1 0.000000 33.502949 25.193834 15.801447 # CH2 
349 1 1 0.000000 32.195908 25.993778 15.648723 # CH2 
350 1 1 0.000000 30.956278 25.121954 15.375159 # CH2 
351 1 1 0.000000 29.649235 25.921900 15.222435 # CH2 
352 1 2 0.000000 28.409603 25.050074 14.948871 # CH3 
353 1 2 0.000000 2.443337 27.207413 9.785955 # CH3 
354 1 1 0.000000 3.856122 27.820204 9.797069 # CH2 
355 1 1 0.000000 4.853251 27.078960 10.706957 # CH2 
356 1 1 0.000000 6.266038 27.691750 10.718071 # CH2 
357 1 1 0.000000 7.263165 26.950508 11.627959 # CH2 
358 1 1 0.000000 8.675952 27.563297 11.639073 # CH2 
359 1 1 0.000000 9.673080 26.822056 12.548961 # CH2 
360 1 2 0.000000 11.085866 27.434845 12.560075 # CH3 
361 1 2 0.000000 28.406097 26.800413 1.749640 # CH3 
362 1 1 0.000000 28.546906 26.932375 3.277501 # CH2 
363 1 1 0.000000 29.953665 27.351854 3.742974 # CH2 
364 1 1 0.000000 30.094475 27.483816 5.270835 # CH2 
365 1 1 0.000000 31.501232 27.903296 5.736307 # CH2 
366 1 1 0.000000 31.642042 28.035259 7.264168 # CH2 
367 1 1 0.000000 33.048801 28.454739 7.729640 # CH2 
368 1 2 0.000000 33.189610 28.586700 9.257501 # CH3 
369 1 2 0.000000 23.399092 34.612274 16.231642 # CH3 
370 1 1 0.000000 23.386145 33.355480 17.121532 # CH2 
371 1 1 0.000000 22.157358 33.253948 18.044231 # CH2 
372 1 1 0.000000 22.144411 31.997156 18.934124 # CH2 
373 1 1 0.000000 20.915627 31.895624 19.856823 # CH2 
374 1 1 0.000000 20.902679 30.638832 20.746716 # CH2 
375 1 1 0.000000 19.673891 30.537298 21.669415 # CH2 
376 1 2 0.000000 19.660946 29.280508 22.559305 # CH3 
377 1 2 0.000000 15.045581 12.364479 7.765057 # CH3 
378 1 1 0.000000 14.646344 10.914438 8.096097 # CH2 
379 1 1 0.000000 13.226198 10.772261 8.674519 # CH2 
380 1 1 0.000000 12.826961 9.322219 9.005559 # CH2 
381 1 1 0.000000 11.406816 9.180043 9.583980 # CH2 
382 1 1 0.000000 11.007578 7.730001 9.915021 # CH2 
383 1 1 0.000000 9.587432 7.587825 10.493442 # CH2 
384 1 2 0.000000 9.188196 6.137783 10.824482 # CH3 
385 1 2 0.000000 7.895644 29.938084 18.268736 # CH3 
386 1 1 0.000000 8.999412 30.984221 18.511408 # CH2 
387 1 1 0.000000 8.538161 32.439663 18.310064 # CH2 
388 1 1 0.000000 9.641930 33.485802 18.552736 # CH2 
389 1 1 0.000000 9.180679 34.941238 18.351393 # CH2 
390 1 1 0.000000 10.284448 35.987377 18.594065 # CH2 
391 1 1 0.000000 9.823197 37.442822 18.392721 # CH2 
392 1 2 0.000000 10.926966 38.488956 18.635393 # CH3 
393 1 2 0.000000 23.994339 8.487625 9.010926 # CH3 
394 1 1 0.000000 23.310326 7.108053 9.033448 # CH2 
395 1 1 0.000000 21.779490 7.170394 9.189180 # CH2 
396 1 1 0.000000 21.095476 5.790822 9.211702 # CH2 
397 1 1 0.000000 19.564640 5.853163 9.367433 # CH2 
398 1 1 0.000000 18.880627 4.473591 9.389955 # CH2 
399 1 1 0.000000 17.349789 4.535931 9.545687 # CH2 
400 1 2 0.000000 16.665775 3.156360 9.568209 # CH3 
401 1 2 0.000000 34.338196 4.667006 30.989985 # CH3 
402 1 1 0.000000 33.450630 5.534852 30.078571 # CH2 
403 1 1 0.000000 32.764347 6.706868 30.804516 # CH2 
404 1 1 0.000000 31.876781 7.574714 29.893105 # CH2 
405 1 1 0.000000 31.190498 8.746730 30.619047 # CH2 
406 1 1 0.000000 30.302933 9.614576 29.707636 # CH2 
407 1 1 0.000000 29.616650 10.786592 30.433580 # CH2 
408 1 2 0.000000 28.729086 11.654438 29.522167 # CH3 
409 1 2 0.000000 14.658258 15.628206 8.643873 # CH3 
410 1 1 0.000000 13.471862 16.590790 8.837515 # CH2 
411 1 1 0.000000 12.092391 15.923070 8.686476 # CH2 
412 1 1 0.000000 10.905994 16.885653 8.880119 # CH2 
413 1 1 0.000000 9.526524 16.217936 8.729080 # CH2 
414 1 1 0.000000 8.340128 17.180517 8.922723 # CH2 
415 1 1 0.000000 6.960657 16.512800 8.771684 # CH2 
416 1 2 0.000000 5.774261 17.475384 8.965326 # CH3 
417 1 2 0.000000 12.789824 27.884588 21.047623 # CH3 
418 1 1 0.000000 12.674645 29.336037 20.545992 # CH2 
419 1 1 0.000000 13.172058 30.388533 21.554174 # CH2 
420 1 1 0.000000 13.056879 31.839979 21.052546 # CH2 
421 1 1 0.000000 13.554291 32.892475 22.060728 # CH2 
422 1 1 0.000000 13.439112 34.343925 21.559099 # CH2 
423 1 1 0.000000 13.936525 35.396420 22.567282 # CH2 
424 1 2 0.000000 13.821346 36.847866 22.065653 # CH3 
425 1 2 0.000000 1.790541 8.195776 37.672482 # CH3 
426 1 1 0.000000 2.809570 7.044046 37.754307 # CH2 
427 1 1 0.000000 4.179192 7.374141 37.132393 # CH2 
428 1 1 0.000000 5.198221 6.222410 37.214214 # CH2 
429 1 1 0.000000 6.567842 6.552505 36.592300 # CH2 
430 1 1 0.000000 7.586871 5.400774 36.674126 # CH2 
431 1 1 0.000000 8.956492 5.730868 36.052212 # CH2 
432 1 2 0.000000 9.975521 4.579138 36.134033 # CH3 
433 1 2 0.000000 7.003626 1.751996 36.229816 # CH3 
434 1 1 0.000000 7.339756 3.207181 35.854252 # CH2 
435 1 1 0.000000 6.224989 3.925508 35.071369 # CH2 
436 1 1 0.000000 6.561118 5.380694 34.695805 # CH2 
437 1 1 0.000000 5.446352 6.099021 33.912922 # CH2 
438 1 1 0.000000 5.782481 7.554207 33.537357 # CH2 
439 1 1 0.000000 4.667714 8.272534 32.754475 # CH2 
440 1 2 0.000000 5.003844 9.727720 32.378910 # CH3 
441 1 2 0.000000 21.514732 23.660048 33.064262 # CH3 
442 1 1 0.000000 21.200321 24.928608 32.249710 # CH2 
443 1 1 0.000000 20.857798 24.656055 30.773230 # CH2 
444 1 1 0.000000 20.543386 25.924616 29.958675 # CH2 
445 1 1 0.000000 20.200861 25.652063 28.482197 # CH2 
446 1 1 0.000000 19.886450 26.920624 27.667643 # CH2 
447 1 1 0.000000 19.543924 26.648071 26.191162 # CH2 
448 1 2 0.000000 19.229513 27.916632 25.376610 # CH3 
449 1 2 0.000000 11.187552 15.510003 28.881157 # CH3 
450 1 1 0.000000 10.807906 15.693442 27.400002 # CH2 
451 1 1 0.000000 12.012460 15.697571 26.440504 # CH2 
452 1 1 0.000000 11.632814 15.881010 24.959351 # CH2 
453 1 1 0.000000 12.837368 15.885140 23.999853 # CH2 
454 1 1 0.000000 12.457722 16.068579 22.518700 # CH2 
455 1 1 0.000000 13.662276 16.072708 21.559202 # CH2 
456 1 2 0.000000 13.282630 16.256147 20.078049 # CH3 
457 1 2 0.000000 10.768558 27.957811 8.721220 # CH3 
458 1 1 0.000000 10.985050 26.524426 9.240961 # CH2 
459 1 1 0.000000 12.464477 26.104757 9.323284 # CH2 
460 1 1 0.000000 12.680969 24.671370 9.843026 # CH2 
461 1 1 0.000000 14.160395 24.251703 9.925348 # CH2 
462 1 1 0.000000 14.376888 22.818316 10.445090 # CH2 
463 1 1 0.000000 15.856314 22.398647 10.527412 # CH2 
464 1 2 0.000000 16.072805 20.965261 11.047154 # CH3 
465 1 2 0.000000 10.990822 19.145470 21.899405 # CH3 
466 1 1 0.000000 11.479717 17.932346 21.086439 # CH2 
467 1 1 0.000000 10.682647 16.640841 21.347776 # CH2 
468 1 1 0.000000 11.171542 15.427716 20.534813 # CH2 
469 1 1 0.000000 10.374473 14.136212 20.796148 # CH2 
470 1 1 0.000000 10.863368 12.923087 19.983185 # CH2 
471 1 1 0.000000 10.066298 11.631582 20.244520 # CH2 
472 1 2 0.000000 10.555193 10.418458 19.431557 # CH3 
473 1 2 0.000000 24.669403 23.118162 17.417793 # CH3 
474 1 1 0.000000 25.802889 22.076675 17.463720 # CH2 
475 1 1 0.000000 26.161276 21.603186 18.884623 # CH2 
476 1 1 0.000000 27.294764 20.561697 18.930550 # CH2 
477 1 1 0.000000 27.653151 20.088207 20.351454 # CH2 
478 1 1 0.000000 28.786636 19.046721 20.397379 # CH2 
479 1 1 0.000000 29.145023 18.573231 21.818283 # CH2 
480 1 2 0.000000 30.278511 17.531742 21.864208 # CH3 
481 1 2 0.000000 19.234402 12.157719 33.178497 # CH3 
482 1 1 0.000000 17.926308 11.350354 33.085495 # CH2 
483 1 1 0.000000 18.123642 9.885761 32.652332 # CH2 
484 1 1 0.000000 16.815548 9.078395 32.559326 # CH2 
485 1 1 0.000000 17.012882 7.613803 32.126163 # CH2 
486 1 1 0.000000 15.704788 6.806437 32.033161 # CH2 
487 1 1 0.000000 15.902122 5.341845 31.599998 # CH2 
488 1 2 0.000000 14.594028 4.534479 31.506994 # CH3 
489 1 2 0.000000 4.811276 11.332439 20.831499 # CH3 
490 1 1 0.000000 4.475602 9.979630 21.486349 # CH2 
491 1 1 0.000000 5.336479 9.650149 22.720016 # CH2 
492 1 1 0.000000 5.000805 8.297339 23.374866 # CH2 
493 1 1 0.000000 5.861681 7.967859 24.608532 # CH2 
494 1 1 0.000000 5.526007 6.615049 25.263382 # CH2 
495 1 1 0.000000 6.386884 6.285568 26.497049 # CH2 
496 1 2 0.000000 6.051210 4.932759 27.151897 # CH3 
497 1 2 0.000000 21.223061 10.446283 34.253010 # CH3 
498 1 1 0.000000 20.899578 11.912310 34.596111 # CH2 
499 1 1 0.000000 22.142071 12.781533 34.864941 # CH2 
500 1 1 0.000000 21.818588 14.247561 35.208046 # CH2 
501 1 1 0.000000 23.061079 15.116783 35.476875 # CH2 
502 1 1 0.000000 22.737597 16.582811 35.819981 # CH2 
503 1 1 0.000000 23.980087 17.452032 36.088806 # CH2 
504 1 2 0.000000 23.656607 18.918060 36.431911 # CH3 
505 1 2 0.000000 32.257984 34.581459 13.153519 # CH3 
506 1 1 0.000000 32.770245 33.129745 13.194990 # CH2 
507 1 1 0.000000 31.683525 32.073940 12.919443 # CH2 
508 1 1 0.000000 32.195782 30.622229 12.960914 # CH2 
509 1 1 0.000000 31.109062 29.566427 12.685367 # CH2 
510 1 1 0.000000 31.621321 28.114714 12.726839 # CH2 
511 1 1 0.000000 30.534601 27.058910 12.451292 # CH2 
512 1 2 0.000000 31.046858 25.607197 12.492763 # CH3 
513 1 2 0.000000 27.569075 31.095371 11.123783 # CH3 
514 1 1 0.000000 27.090460 30.756956 12.547861 # CH2 
515 1 1 0.000000 26.971703 29.247034 12.826495 # CH2 
516 1 1 0.000000 26.493088 28.908619 14.250575 # CH2 
517 1 1 0.000000 26.374331 27.398699 14.529208 # CH2 
518 1 1 0.000000 25.895716 27.060282 15.953287 # CH2 
519 1 1 0.000000 25.776958 25.550362 16.231920 # CH2 
520 1 2 0.000000 25.298342 25.211945 17.655998 # CH3 
521 1 2 0.000000 7.372929 16.785397 33.603489 # CH3 
522 1 1 0.000000 7.785318 17.948776 32.682575 # CH2 
523 1 1 0.000000 7.297677 19.329126 33.160530 # CH2 
524 1 1 0.000000 7.710066 20.492506 32.239616 # CH2 
525 1 1 0.000000 7.222425 21.872854 32.717575 # CH2 
526 1 1 0.000000 7.634813 23.036236 31.796661 # CH2 
527 1 1 0.000000 7.147172 24.416586 32.274616 # CH2 
528 1 2 0.000000 7.559561 25.579964 31.353704 # CH3 
529 1 2 0.000000 14.356522 23.498068 23.312237 # CH3 
530 1 1 0.000000 15.289222 22.316496 23.637131 # CH2 
531 1 1 0.000000 16.757481 22.721628 23.864481 # CH2 
532 1 1 0.000000 17.690182 21.540056 24.189377 # CH2 
533 1 1 0.000000 19.158438 21.945189 24.416725 # CH2 
534 1 1 0.000000 20.091139 20.763618 24.741621 # CH2 
535 1 1 0.000000 21.559397 21.168751 24.968971 # CH2 
536 1 2 0.000000 22.492098 19.987179 25.293865 # CH3 
537 1 2 0.000000 27.330494 23.800735 19.368752 # CH3 
538 1 1 0.000000 27.455591 25.325354 19.191305 # CH2 
539 1 1 0.000000 26.514631 26.140736 20.097589 # CH2 
540 1 1 0.000000 26.639727 27.665354 19.920143 # CH2 
541 1 1 0.000000 25.698767 28.480734 20.826426 # CH2 
542 1 1 0.000000 25.823864 30.005354 20.648981 # CH2 
543 1 1 0.000000 24.882904 30.820732 21.555264 # CH2 
544 1 2 0.000000 25.008001 32.345352 21.377817 # CH3 
545 1 2 0.000000 12.744900 2.038940 13.346057 # CH3 
546 1 1 0.000000 13.913732 2.388041 12.406079 # CH2 
547 1 1 0.000000 15.207494 2.790479 13.138080 # CH2 
548 1 1 0.000000 16.376326 3.139581 12.198102 # CH2 
549 1 1 0.000000 17.670088 3.542019 12.930103 # CH2 
550 1 1 0.000000 18.838919 3.891120 11.990124 # CH2 
551 1 1 0.000000 20.132681 4.293558 12.722125 # CH2 
552 1 2 0.000000 21.301514 4.642659 11.782147 # CH3 
553 1 2 0.000000 31.585688 22.623100 16.195143 # CH3 