LAMMPS data file. CGCMM style. atom_style full generated by VMD/TopoTools v1.7 on Fri Jan 19 11:19:17 EST 2018
 16 atoms
 14 bonds
 12 angles
 10 dihedrals
 0 impropers
 2 atom types
 1 bond types
 2 angle types
 2 dihedral types
 0 improper types
 -0.500000 0.500000  xlo xhi
 -0.500000 0.500000  ylo yhi
 -0.500000 0.500000  zlo zhi

# Pair Coeffs
#
# 1  CH2
# 2  CH3

# Bond Coeffs
#
# 1  

# Angle Coeffs
#
# 1  CH2-CH2-CH2
# 2  CH2-CH2-CH3

# Dihedral Coeffs
#
# 1  CH2-CH2-CH2-CH2
# 2  CH2-CH2-CH2-CH3

 Masses

 1 4.002600 # CH2
 2 15.035000 # CH3

 Atoms # full

1 1 2 0.000000 0.338614 15.471262 16.653759 # CH3 
2 1 1 0.000000 1.571860 15.466804 15.731435 # CH2 
3 1 1 0.000000 1.485585 14.453347 14.575120 # CH2 
4 1 1 0.000000 2.718832 14.448890 13.652795 # CH2 
5 1 1 0.000000 2.632557 13.435433 12.496482 # CH2 
6 1 1 0.000000 3.865803 13.430975 11.574157 # CH2 
7 1 1 0.000000 3.779529 12.417518 10.417842 # CH2 
8 1 2 0.000000 5.012775 12.413061 9.495518 # CH3 
9 1 2 0.000000 1.222608 10.659423 0.095897 # CH3 
10 1 1 0.000000 1.234954 12.193595 0.229169 # CH2 
11 1 1 0.000000 2.560972 12.765174 0.764495 # CH2 
12 1 1 0.000000 2.573319 14.299347 0.897767 # CH2 
13 1 1 0.000000 3.899336 14.870926 1.433094 # CH2 
14 1 1 0.000000 3.911683 16.405100 1.566366 # CH2 
15 1 1 0.000000 5.237701 16.976679 2.101692 # CH2 
16 1 2 0.000000 5.250047 18.510851 2.234965 # CH3 

 Bonds

1 1 1 2
2 1 2 3
3 1 3 4
4 1 4 5
5 1 5 6
6 1 6 7
7 1 7 8
8 1 9 10
9 1 10 11
10 1 11 12
11 1 12 13
12 1 13 14
13 1 14 15
14 1 15 16

 Angles

1 2 1 2 3
2 1 2 3 4
3 1 3 4 5
4 1 4 5 6
5 1 5 6 7
6 2 6 7 8
7 2 9 10 11
8 1 10 11 12
9 1 11 12 13
10 1 12 13 14
11 1 13 14 15
12 2 14 15 16

 Dihedrals

1 2 1 2 3 4
2 1 2 3 4 5
3 1 3 4 5 6
4 1 4 5 6 7
5 2 5 6 7 8
6 2 9 10 11 12
7 1 10 11 12 13
8 1 11 12 13 14
9 1 12 13 14 15
10 2 13 14 15 16

