LAMMPS data file. CGCMM style. atom_style full generated by VMD/TopoTools v1.7 on Fri Jan 19 15:07:47 EST 2018
 3872 atoms
 3388 bonds
 2904 angles
 2420 dihedrals
 0 impropers
 2 atom types
 1 bond types
 2 angle types
 2 dihedral types
 0 improper types
0.0   25.84   xlo xhi
0.0   25.84   ylo yhi
0.0  232.57  zlo zhi

# Pair Coeffs
#
# 1  CH2
# 2  CH3

# Bond Coeffs
#
# 1

# Angle Coeffs
#
# 1  CH2-CH2-CH2
# 2  CH2-CH2-CH3

# Dihedral Coeffs
#
# 1  CH2-CH2-CH2-CH2
# 2  CH2-CH2-CH2-CH3

 Masses

 1 14.027000 # CH2
 2 15.035000 # CH3

 Atoms # full

1 1 2 0.000000 7.409270 24.800587 213.173523 # CH3
2 1 1 0.000000 7.256428 23.287189 212.932968 # CH2
3 1 1 0.000000 5.884166 22.722853 213.345306 # CH2
4 1 1 0.000000 5.731324 21.209454 213.104736 # CH2
5 1 1 0.000000 4.359063 20.645117 213.517075 # CH2
6 1 1 0.000000 4.206221 19.131720 213.276520 # CH2
7 1 1 0.000000 2.833960 18.567381 213.688858 # CH2
8 1 2 0.000000 2.681118 17.053984 213.448303 # CH3
9 1 2 0.000000 6.320968 14.768822 131.051453 # CH3
10 1 1 0.000000 6.651120 16.266012 130.906479 # CH2
11 1 1 0.000000 8.157691 16.568117 130.803635 # CH2
12 1 1 0.000000 8.487844 18.065308 130.658646 # CH2
13 1 1 0.000000 9.994415 18.367413 130.555817 # CH2
14 1 1 0.000000 10.324568 19.864603 130.410828 # CH2
15 1 1 0.000000 11.831139 20.166708 130.307983 # CH2
16 1 2 0.000000 12.161291 21.663898 130.163010 # CH3
17 1 2 0.000000 8.618967 5.723632 56.797802 # CH3
18 1 1 0.000000 8.304379 6.479378 55.493393 # CH2
19 1 1 0.000000 7.723643 5.589765 54.378525 # CH2
20 1 1 0.000000 7.409055 6.345510 53.074116 # CH2
21 1 1 0.000000 6.828320 5.455897 51.959248 # CH2
22 1 1 0.000000 6.513731 6.211642 50.654839 # CH2
23 1 1 0.000000 5.932996 5.322029 49.539967 # CH2
24 1 2 0.000000 5.618407 6.077774 48.235558 # CH3
25 1 2 0.000000 7.523445 16.310921 55.272320 # CH3
26 1 1 0.000000 8.495045 15.732604 56.317852 # CH2
27 1 1 0.000000 9.860213 16.443714 56.365166 # CH2
28 1 1 0.000000 10.831814 15.865398 57.410702 # CH2
29 1 1 0.000000 12.196981 16.576509 57.458012 # CH2
30 1 1 0.000000 13.168581 15.998193 58.503548 # CH2
31 1 1 0.000000 14.533749 16.709305 58.550858 # CH2
32 1 2 0.000000 15.505349 16.130987 59.596394 # CH3
33 1 2 0.000000 3.472533 15.408453 19.076637 # CH3
34 1 1 0.000000 3.986562 14.235536 18.221279 # CH2
35 1 1 0.000000 3.138921 12.955272 18.339727 # CH2
36 1 1 0.000000 3.652949 11.782354 17.484367 # CH2
37 1 1 0.000000 2.805308 10.502091 17.602816 # CH2
38 1 1 0.000000 3.319336 9.329173 16.747458 # CH2
39 1 1 0.000000 2.471695 8.048909 16.865906 # CH2
40 1 2 0.000000 2.985723 6.875992 16.010546 # CH3
41 1 2 0.000000 4.507393 19.069721 156.787003 # CH3
42 1 1 0.000000 5.664370 18.683554 155.846863 # CH2
43 1 1 0.000000 6.551765 17.543898 156.381012 # CH2
44 1 1 0.000000 7.708743 17.157730 155.440857 # CH2
45 1 1 0.000000 8.596137 16.018074 155.975006 # CH2
46 1 1 0.000000 9.753116 15.631906 155.034866 # CH2
47 1 1 0.000000 10.640511 14.492250 155.569016 # CH2
48 1 2 0.000000 11.797488 14.106082 154.628860 # CH3
49 1 2 0.000000 5.403849 15.204153 184.203690 # CH3
50 1 1 0.000000 4.865136 15.286732 185.644012 # CH2
51 1 1 0.000000 4.191835 13.992093 186.136124 # CH2
52 1 1 0.000000 3.653121 14.074671 187.576462 # CH2
53 1 1 0.000000 2.979820 12.780032 188.068588 # CH2
54 1 1 0.000000 2.441106 12.862610 189.508911 # CH2
55 1 1 0.000000 1.767805 11.567971 190.001038 # CH2
56 1 2 0.000000 1.229092 11.650549 191.441360 # CH3
57 1 2 0.000000 22.243307 16.100130 115.335846 # CH3
58 1 1 0.000000 21.394768 16.994778 116.258446 # CH2
59 1 1 0.000000 19.948006 17.201492 115.772903 # CH2
60 1 1 0.000000 19.099464 18.096138 116.695503 # CH2
61 1 1 0.000000 17.652702 18.302853 116.209969 # CH2
62 1 1 0.000000 16.804161 19.197498 117.132568 # CH2
63 1 1 0.000000 15.357399 19.404213 116.647026 # CH2
64 1 2 0.000000 14.508859 20.298859 117.569626 # CH3
65 1 2 0.000000 19.001192 9.469880 152.410156 # CH3
66 1 1 0.000000 19.579958 8.180450 151.798599 # CH2
67 1 1 0.000000 20.440535 8.414114 150.543045 # CH2
68 1 1 0.000000 21.019300 7.124684 149.931488 # CH2
69 1 1 0.000000 21.879875 7.358348 148.675934 # CH2
70 1 1 0.000000 22.458641 6.068918 148.064392 # CH2
71 1 1 0.000000 23.319218 6.302582 146.808838 # CH2
72 1 2 0.000000 23.897984 5.013152 146.197281 # CH3
73 1 2 0.000000 5.506837 9.857722 19.871513 # CH3
74 1 1 0.000000 6.574885 10.940887 20.111570 # CH2
75 1 1 0.000000 6.105365 12.093355 21.018745 # CH2
76 1 1 0.000000 7.173413 13.176520 21.258804 # CH2
77 1 1 0.000000 6.703892 14.328988 22.165979 # CH2
78 1 1 0.000000 7.771940 15.412153 22.406036 # CH2
79 1 1 0.000000 7.302420 16.564623 23.313211 # CH2
80 1 2 0.000000 8.370467 17.647785 23.553268 # CH3
81 1 2 0.000000 12.359352 4.858396 178.460526 # CH3
82 1 1 0.000000 12.539787 6.337845 178.848175 # CH2
83 1 1 0.000000 11.432255 7.264932 178.313873 # CH2
84 1 1 0.000000 11.612689 8.744381 178.701523 # CH2
85 1 1 0.000000 10.505158 9.671468 178.167221 # CH2
86 1 1 0.000000 10.685592 11.150917 178.554871 # CH2
87 1 1 0.000000 9.578060 12.078005 178.020569 # CH2
88 1 2 0.000000 9.758494 13.557453 178.408218 # CH3
89 1 2 0.000000 13.799119 4.997489 157.768494 # CH3
90 1 1 0.000000 14.341052 4.904187 159.206970 # CH2
91 1 1 0.000000 15.829335 4.517635 159.291779 # CH2
92 1 1 0.000000 16.371269 4.424333 160.730255 # CH2
93 1 1 0.000000 17.859550 4.037781 160.815063 # CH2
94 1 1 0.000000 18.401484 3.944479 162.253540 # CH2
95 1 1 0.000000 19.889767 3.557927 162.338348 # CH2
96 1 2 0.000000 20.431700 3.464625 163.776825 # CH3
97 1 2 0.000000 13.488547 2.845869 227.076981 # CH3
98 1 1 0.000000 12.120565 3.538893 227.218185 # CH2
99 1 1 0.000000 12.023737 4.494364 228.422058 # CH2
100 1 1 0.000000 10.655753 5.187388 228.563263 # CH2
101 1 1 0.000000 10.558926 6.142858 229.767136 # CH2
102 1 1 0.000000 9.190943 6.835883 229.908340 # CH2
103 1 1 0.000000 9.094114 7.791354 231.112213 # CH2
104 1 2 0.000000 7.726132 8.484378 231.253418 # CH3
105 1 2 0.000000 12.710496 9.275678 19.164141 # CH3
106 1 1 0.000000 12.713108 10.179007 17.916908 # CH2
107 1 1 0.000000 11.957291 11.507639 18.104204 # CH2
108 1 1 0.000000 11.959902 12.410968 16.856972 # CH2
109 1 1 0.000000 11.204086 13.739599 17.044268 # CH2
110 1 1 0.000000 11.206698 14.642929 15.797036 # CH2
111 1 1 0.000000 10.450881 15.971561 15.984332 # CH2
112 1 2 0.000000 10.453493 16.874889 14.737099 # CH3
113 1 2 0.000000 12.897400 6.275394 78.743645 # CH3
114 1 1 0.000000 12.419962 7.720863 78.976601 # CH2
115 1 1 0.000000 13.511492 8.661006 79.520927 # CH2
116 1 1 0.000000 13.034054 10.106476 79.753891 # CH2
117 1 1 0.000000 14.125584 11.046619 80.298218 # CH2
118 1 1 0.000000 13.648146 12.492089 80.531181 # CH2
119 1 1 0.000000 14.739676 13.432232 81.075508 # CH2
120 1 2 0.000000 14.262238 14.877701 81.308464 # CH3
121 1 2 0.000000 6.537850 19.674900 117.664551 # CH3
122 1 1 0.000000 7.338548 18.363792 117.771683 # CH2
123 1 1 0.000000 6.491010 17.093964 117.569656 # CH2
124 1 1 0.000000 7.291709 15.782856 117.676788 # CH2
125 1 1 0.000000 6.444171 14.513027 117.474770 # CH2
126 1 1 0.000000 7.244869 13.201919 117.581902 # CH2
127 1 1 0.000000 6.397331 11.932090 117.379875 # CH2
128 1 2 0.000000 7.198029 10.620983 117.487007 # CH3
129 1 2 0.000000 15.578837 12.188300 98.170303 # CH3
130 1 1 0.000000 15.497982 12.032732 96.640312 # CH2
131 1 1 0.000000 16.215904 13.148475 95.858452 # CH2
132 1 1 0.000000 16.135050 12.992907 94.328468 # CH2
133 1 1 0.000000 16.852970 14.108649 93.546600 # CH2
134 1 1 0.000000 16.772116 13.953082 92.016617 # CH2
135 1 1 0.000000 17.490038 15.068824 91.234756 # CH2
136 1 2 0.000000 17.409184 14.913257 89.704765 # CH3
137 1 2 0.000000 17.668776 11.054935 140.916367 # CH3
138 1 1 0.000000 19.032030 11.603948 140.456238 # CH2
139 1 1 0.000000 19.185638 13.126236 140.631287 # CH2
140 1 1 0.000000 20.548897 13.675249 140.171158 # CH2
141 1 1 0.000000 20.702503 15.197537 140.346207 # CH2
142 1 1 0.000000 22.065760 15.746550 139.886093 # CH2
143 1 1 0.000000 22.219368 17.268839 140.061142 # CH2
144 1 2 0.000000 23.582624 17.817850 139.601013 # CH3
145 1 2 0.000000 5.373237 6.809074 64.282639 # CH3
146 1 1 0.000000 6.514542 6.267776 65.163551 # CH2
147 1 1 0.000000 6.484974 6.784076 66.614128 # CH2
148 1 1 0.000000 7.626280 6.242777 67.495041 # CH2
149 1 1 0.000000 7.596712 6.759077 68.945618 # CH2
150 1 1 0.000000 8.738018 6.217779 69.826530 # CH2
151 1 1 0.000000 8.708450 6.734079 71.277107 # CH2
152 1 2 0.000000 9.849755 6.192780 72.158028 # CH3
153 1 2 0.000000 13.921111 24.837143 6.225011 # CH3
154 1 1 0.000000 13.590399 23.700850 7.210437 # CH2
155 1 1 0.000000 12.461067 22.768126 6.734791 # CH2
156 1 1 0.000000 12.130355 21.631832 7.720217 # CH2
157 1 1 0.000000 11.001023 20.699110 7.244571 # CH2
158 1 1 0.000000 10.670311 19.562817 8.229998 # CH2
159 1 1 0.000000 9.540979 18.630095 7.754352 # CH2
160 1 2 0.000000 9.210267 17.493799 8.739778 # CH3
161 1 2 0.000000 4.121873 19.423403 57.199181 # CH3
162 1 1 0.000000 4.709970 20.315378 56.090073 # CH2
163 1 1 0.000000 6.241597 20.463482 56.151592 # CH2
164 1 1 0.000000 6.829696 21.355455 55.042484 # CH2
165 1 1 0.000000 8.361322 21.503559 55.104008 # CH2
166 1 1 0.000000 8.949421 22.395535 53.994900 # CH2
167 1 1 0.000000 10.481048 22.543638 54.056419 # CH2
168 1 2 0.000000 11.069146 23.435612 52.947311 # CH3
169 1 2 0.000000 24.106722 22.510111 139.221390 # CH3
170 1 1 0.000000 23.060375 21.380713 139.256302 # CH2
171 1 1 0.000000 21.603415 21.877752 139.298904 # CH2
172 1 1 0.000000 20.557070 20.748352 139.333817 # CH2
173 1 1 0.000000 19.100107 21.245394 139.376434 # CH2
174 1 1 0.000000 18.053762 20.115993 139.411331 # CH2
175 1 1 0.000000 16.596802 20.613033 139.453949 # CH2
176 1 2 0.000000 15.550455 19.483637 139.488846 # CH3
177 1 2 0.000000 11.929572 18.302853 100.093185 # CH3
178 1 1 0.000000 10.757994 17.780582 99.240990 # CH2
179 1 1 0.000000 9.857237 16.765802 99.969315 # CH2
180 1 1 0.000000 8.685659 16.243532 99.117126 # CH2
181 1 1 0.000000 7.784903 15.228754 99.845451 # CH2
182 1 1 0.000000 6.613324 14.706483 98.993256 # CH2
183 1 1 0.000000 5.712568 13.691705 99.721588 # CH2
184 1 2 0.000000 4.540990 13.169435 98.869392 # CH3
185 1 2 0.000000 17.589388 19.919203 110.927307 # CH3
186 1 1 0.000000 16.485683 19.985657 109.855385 # CH2
187 1 1 0.000000 15.135047 19.401945 110.309982 # CH2
188 1 1 0.000000 14.031342 19.468399 109.238060 # CH2
189 1 1 0.000000 12.680706 18.884689 109.692665 # CH2
190 1 1 0.000000 11.577002 18.951141 108.620735 # CH2
191 1 1 0.000000 10.226364 18.367432 109.075340 # CH2
192 1 2 0.000000 9.122661 18.433886 108.003410 # CH3
193 1 2 0.000000 7.372377 24.837700 40.866352 # CH3
194 1 1 0.000000 6.368440 23.842993 41.478127 # CH2
195 1 1 0.000000 7.020062 22.745659 42.340012 # CH2
196 1 1 0.000000 6.016125 21.750952 42.951786 # CH2
197 1 1 0.000000 6.667748 20.653620 43.813671 # CH2
198 1 1 0.000000 5.663811 19.658911 44.425446 # CH2
199 1 1 0.000000 6.315433 18.561579 45.287334 # CH2
200 1 2 0.000000 5.311496 17.566872 45.899109 # CH3
201 1 2 0.000000 20.517790 18.011917 105.259132 # CH3
202 1 1 0.000000 19.821377 16.642330 105.363220 # CH2
203 1 1 0.000000 20.792261 15.447797 105.408730 # CH2
204 1 1 0.000000 20.095846 14.078208 105.512810 # CH2
205 1 1 0.000000 21.066732 12.883675 105.558319 # CH2
206 1 1 0.000000 20.370317 11.514086 105.662407 # CH2
207 1 1 0.000000 21.341204 10.319553 105.707916 # CH2
208 1 2 0.000000 20.644789 8.949965 105.812004 # CH3
209 1 2 0.000000 12.661636 6.948260 229.436310 # CH3
210 1 1 0.000000 13.434071 8.000630 228.619339 # CH2
211 1 1 0.000000 13.434729 9.405861 229.249359 # CH2
212 1 1 0.000000 14.207165 10.458232 228.432373 # CH2
213 1 1 0.000000 14.207822 11.863462 229.062393 # CH2
214 1 1 0.000000 14.980258 12.915833 228.245407 # CH2
215 1 1 0.000000 14.980916 14.321065 228.875427 # CH2
216 1 2 0.000000 15.753351 15.373435 228.058456 # CH3
217 1 2 0.000000 8.861536 17.124737 102.207001 # CH3
218 1 1 0.000000 8.820171 15.783410 102.962471 # CH2
219 1 1 0.000000 7.476040 15.497121 103.657417 # CH2
220 1 1 0.000000 7.434674 14.155794 104.412880 # CH2
221 1 1 0.000000 6.090543 13.869505 105.107826 # CH2
222 1 1 0.000000 6.049178 12.528178 105.863297 # CH2
223 1 1 0.000000 4.705046 12.241888 106.558243 # CH2
224 1 2 0.000000 4.663681 10.900562 107.313705 # CH3
225 1 2 0.000000 16.843761 7.004666 167.087906 # CH3
226 1 1 0.000000 15.450755 7.644985 166.942581 # CH2
227 1 1 0.000000 14.783191 7.389562 165.578491 # CH2
228 1 1 0.000000 13.390184 8.029881 165.433167 # CH2
229 1 1 0.000000 12.722621 7.774458 164.069077 # CH2
230 1 1 0.000000 11.329613 8.414778 163.923737 # CH2
231 1 1 0.000000 10.662050 8.159355 162.559662 # CH2
232 1 2 0.000000 9.269043 8.799674 162.414322 # CH3
233 1 2 0.000000 18.601421 10.616134 81.778366 # CH3
234 1 1 0.000000 19.885902 11.457290 81.659355 # CH2
235 1 1 0.000000 19.676462 12.960670 81.919327 # CH2
236 1 1 0.000000 20.960943 13.801827 81.800316 # CH2
237 1 1 0.000000 20.751503 15.305206 82.060280 # CH2
238 1 1 0.000000 22.035984 16.146364 81.941277 # CH2
239 1 1 0.000000 21.826544 17.649744 82.201241 # CH2
240 1 2 0.000000 23.111025 18.490900 82.082230 # CH3
241 1 2 0.000000 21.620407 16.276794 60.960865 # CH3
242 1 1 0.000000 20.140282 16.159897 60.552010 # CH2
243 1 1 0.000000 19.366117 17.489666 60.615108 # CH2
244 1 1 0.000000 17.885990 17.372768 60.206257 # CH2
245 1 1 0.000000 17.111826 18.702538 60.269356 # CH2
246 1 1 0.000000 15.631699 18.585640 59.860500 # CH2
247 1 1 0.000000 14.857534 19.915409 59.923599 # CH2
248 1 2 0.000000 13.377408 19.798512 59.514748 # CH3
249 1 2 0.000000 16.025873 9.483458 170.053146 # CH3
250 1 1 0.000000 15.187820 9.082040 171.281204 # CH2
251 1 1 0.000000 16.022005 8.807931 172.546356 # CH2
252 1 1 0.000000 15.183951 8.406513 173.774414 # CH2
253 1 1 0.000000 16.018135 8.132404 175.039566 # CH2
254 1 1 0.000000 15.180082 7.730986 176.267624 # CH2
255 1 1 0.000000 16.014267 7.456877 177.532776 # CH2
256 1 2 0.000000 15.176213 7.055459 178.760834 # CH3
257 1 2 0.000000 17.383410 9.610773 15.535807 # CH3
258 1 1 0.000000 17.054745 10.437054 16.793119 # CH2
259 1 1 0.000000 17.005627 11.956752 16.548771 # CH2
260 1 1 0.000000 16.676962 12.783034 17.806086 # CH2
261 1 1 0.000000 16.627846 14.302731 17.561735 # CH2
262 1 1 0.000000 16.299181 15.129012 18.819050 # CH2
263 1 1 0.000000 16.250065 16.648710 18.574699 # CH2
264 1 2 0.000000 15.921399 17.474991 19.832014 # CH3
265 1 2 0.000000 9.292364 14.782857 79.455063 # CH3
266 1 1 0.000000 9.689690 16.242964 79.741096 # CH2
267 1 1 0.000000 10.752860 16.398170 80.844360 # CH2
268 1 1 0.000000 11.150187 17.858278 81.130394 # CH2
269 1 1 0.000000 12.213357 18.013483 82.233650 # CH2
270 1 1 0.000000 12.610684 19.473591 82.519691 # CH2
271 1 1 0.000000 13.673854 19.628798 83.622948 # CH2
272 1 2 0.000000 14.071181 21.088903 83.908989 # CH3
273 1 2 0.000000 19.715229 13.428865 97.200951 # CH3
274 1 1 0.000000 18.588970 13.078950 96.210648 # CH2
275 1 1 0.000000 18.884989 11.847047 95.335213 # CH2
276 1 1 0.000000 17.758730 11.497131 94.344910 # CH2
277 1 1 0.000000 18.054747 10.265228 93.469475 # CH2
278 1 1 0.000000 16.928490 9.915313 92.479172 # CH2
279 1 1 0.000000 17.224506 8.683409 91.603729 # CH2
280 1 2 0.000000 16.098248 8.333494 90.613426 # CH3
281 1 2 0.000000 3.609470 4.688523 143.802811 # CH3
282 1 1 0.000000 4.950439 4.757615 143.048737 # CH2
283 1 1 0.000000 6.012834 3.771282 143.568420 # CH2
284 1 1 0.000000 7.353804 3.840374 142.814346 # CH2
285 1 1 0.000000 8.416198 2.854040 143.334030 # CH2
286 1 1 0.000000 9.757168 2.923132 142.579956 # CH2
287 1 1 0.000000 10.819563 1.936799 143.099625 # CH2
288 1 2 0.000000 12.160532 2.005891 142.345551 # CH3
289 1 2 0.000000 24.838354 8.689294 152.801712 # CH3
290 1 1 0.000000 23.491632 8.101296 153.262360 # CH2
291 1 1 0.000000 23.585108 6.655343 153.783981 # CH2
292 1 1 0.000000 22.238386 6.067344 154.244629 # CH2
293 1 1 0.000000 22.331861 4.621393 154.766251 # CH2
294 1 1 0.000000 20.985142 4.033393 155.226898 # CH2
295 1 1 0.000000 21.078615 2.587441 155.748505 # CH2
296 1 2 0.000000 19.731895 1.999442 156.209167 # CH3
297 1 2 0.000000 2.641566 15.763078 51.815411 # CH3
298 1 1 0.000000 4.019996 16.236444 51.317963 # CH2
299 1 1 0.000000 4.803121 17.074055 52.345932 # CH2
300 1 1 0.000000 6.181551 17.547421 51.848484 # CH2
301 1 1 0.000000 6.964676 18.385031 52.876453 # CH2
302 1 1 0.000000 8.343106 18.858397 52.379005 # CH2
303 1 1 0.000000 9.126232 19.696009 53.406975 # CH2
304 1 2 0.000000 10.504661 20.169374 52.909527 # CH3
305 1 2 0.000000 8.152374 1.654549 170.505508 # CH3
306 1 1 0.000000 7.184819 2.811705 170.816040 # CH2
307 1 1 0.000000 7.224804 3.285695 172.280731 # CH2
308 1 1 0.000000 6.257248 4.442852 172.591263 # CH2
309 1 1 0.000000 6.297234 4.916842 174.055954 # CH2
310 1 1 0.000000 5.329678 6.073998 174.366486 # CH2
311 1 1 0.000000 5.369663 6.547989 175.831177 # CH2
312 1 2 0.000000 4.402108 7.705145 176.141693 # CH3
313 1 2 0.000000 13.928014 3.012339 105.109718 # CH3
314 1 1 0.000000 14.940134 4.061505 105.606171 # CH2
315 1 1 0.000000 14.351320 5.476156 105.759987 # CH2
316 1 1 0.000000 15.363439 6.525323 106.256439 # CH2
317 1 1 0.000000 14.774625 7.939974 106.410255 # CH2
318 1 1 0.000000 15.786745 8.989141 106.906708 # CH2
319 1 1 0.000000 15.197931 10.403792 107.060524 # CH2
320 1 2 0.000000 16.210051 11.452958 107.556976 # CH3
321 1 2 0.000000 5.560322 20.698198 72.709381 # CH3
322 1 1 0.000000 6.098794 19.262411 72.567398 # CH2
323 1 1 0.000000 6.948192 19.034134 71.303268 # CH2
324 1 1 0.000000 7.486664 17.598345 71.161293 # CH2
325 1 1 0.000000 8.336062 17.370068 69.897163 # CH2
326 1 1 0.000000 8.874534 15.934279 69.755180 # CH2
327 1 1 0.000000 9.723932 15.706002 68.491058 # CH2
328 1 2 0.000000 10.262403 14.270213 68.349075 # CH3
329 1 2 0.000000 6.422272 7.044563 92.005692 # CH3
330 1 1 0.000000 7.930474 7.192819 92.279449 # CH2
331 1 1 0.000000 8.516833 6.084117 93.173073 # CH2
332 1 1 0.000000 10.025035 6.232372 93.446838 # CH2
333 1 1 0.000000 10.611393 5.123671 94.340462 # CH2
334 1 1 0.000000 12.119596 5.271926 94.614227 # CH2
335 1 1 0.000000 12.705954 4.163225 95.507851 # CH2
336 1 2 0.000000 14.214156 4.311480 95.781609 # CH3
337 1 2 0.000000 11.167229 19.923859 176.109009 # CH3
338 1 1 0.000000 12.313244 19.056831 175.555374 # CH2
339 1 1 0.000000 13.705736 19.701427 175.685989 # CH2
340 1 1 0.000000 14.851751 18.834400 175.132355 # CH2
341 1 1 0.000000 16.244244 19.478996 175.262985 # CH2
342 1 1 0.000000 17.390259 18.611971 174.709335 # CH2
343 1 1 0.000000 18.782749 19.256565 174.839966 # CH2
344 1 2 0.000000 19.928764 18.389540 174.286331 # CH3
345 1 2 0.000000 24.020226 16.436716 53.697266 # CH3
346 1 1 0.000000 23.741249 15.381725 52.610634 # CH2
347 1 1 0.000000 22.398560 15.573660 51.881287 # CH2
348 1 1 0.000000 22.119583 14.518668 50.794659 # CH2
349 1 1 0.000000 20.776896 14.710604 50.065311 # CH2
350 1 1 0.000000 20.497919 13.655612 48.978683 # CH2
351 1 1 0.000000 19.155230 13.847548 48.249336 # CH2
352 1 2 0.000000 18.876253 12.792556 47.162704 # CH3
353 1 2 0.000000 4.084518 11.499939 202.186859 # CH3
354 1 1 0.000000 4.518599 11.425443 203.662537 # CH2
355 1 1 0.000000 4.150835 12.672844 204.487366 # CH2
356 1 1 0.000000 4.584917 12.598348 205.963043 # CH2
357 1 1 0.000000 4.217153 13.845748 206.787872 # CH2
358 1 1 0.000000 4.651235 13.771253 208.263550 # CH2
359 1 1 0.000000 4.283471 15.018653 209.088379 # CH2
360 1 2 0.000000 4.717552 14.944157 210.564056 # CH3
361 1 2 0.000000 12.292430 1.221718 116.897217 # CH3
362 1 1 0.000000 13.125946 2.492786 116.649757 # CH2
363 1 1 0.000000 12.292588 3.786412 116.589348 # CH2
364 1 1 0.000000 13.126104 5.057480 116.341888 # CH2
365 1 1 0.000000 12.292746 6.351105 116.281487 # CH2
366 1 1 0.000000 13.126262 7.622173 116.034027 # CH2
367 1 1 0.000000 12.292904 8.915799 115.973618 # CH2
368 1 2 0.000000 13.126420 10.186867 115.726158 # CH3
369 1 2 0.000000 13.073694 23.874838 29.246725 # CH3
370 1 1 0.000000 12.037765 22.793655 28.886868 # CH2
371 1 1 0.000000 11.470920 22.919334 27.460510 # CH2
372 1 1 0.000000 10.434990 21.838154 27.100651 # CH2
373 1 1 0.000000 9.868146 21.963833 25.674295 # CH2
374 1 1 0.000000 8.832216 20.882652 25.314438 # CH2
375 1 1 0.000000 8.265371 21.008329 23.888081 # CH2
376 1 2 0.000000 7.229442 19.927151 23.528223 # CH3
377 1 2 0.000000 11.695239 19.771811 157.771896 # CH3
378 1 1 0.000000 13.191516 19.411474 157.717941 # CH2
379 1 1 0.000000 13.488111 17.925188 157.991058 # CH2
380 1 1 0.000000 14.984390 17.564854 157.937103 # CH2
381 1 1 0.000000 15.280984 16.078569 158.210220 # CH2
382 1 1 0.000000 16.777262 15.718233 158.156265 # CH2
383 1 1 0.000000 17.073858 14.231948 158.429382 # CH2
384 1 2 0.000000 18.570135 13.871613 158.375427 # CH3
385 1 2 0.000000 4.426461 5.501566 137.422394 # CH3
386 1 1 0.000000 5.693332 4.653238 137.639130 # CH2
387 1 1 0.000000 6.981564 5.481370 137.801163 # CH2
388 1 1 0.000000 8.248436 4.633041 138.017899 # CH2
389 1 1 0.000000 9.536667 5.461173 138.179947 # CH2
390 1 1 0.000000 10.803539 4.612845 138.396683 # CH2
391 1 1 0.000000 12.091771 5.440977 138.558716 # CH2
392 1 2 0.000000 13.358642 4.592648 138.775452 # CH3
393 1 2 0.000000 19.928383 3.991716 71.526733 # CH3
394 1 1 0.000000 21.099340 4.978479 71.363182 # CH2
395 1 1 0.000000 21.032001 5.822762 70.077003 # CH2
396 1 1 0.000000 22.202961 6.809525 69.913445 # CH2
397 1 1 0.000000 22.135620 7.653807 68.627266 # CH2
398 1 1 0.000000 23.306580 8.640571 68.463715 # CH2
399 1 1 0.000000 23.239241 9.484854 67.177536 # CH2
400 1 2 0.000000 24.410198 10.471617 67.013977 # CH3
401 1 2 0.000000 1.187166 14.101246 101.187988 # CH3
402 1 1 0.000000 2.613713 14.119102 100.608124 # CH2
403 1 1 0.000000 3.074270 15.505297 100.120323 # CH2
404 1 1 0.000000 4.500818 15.523154 99.540459 # CH2
405 1 1 0.000000 4.961373 16.909349 99.052650 # CH2
406 1 1 0.000000 6.387921 16.927204 98.472786 # CH2
407 1 1 0.000000 6.848477 18.313400 97.984985 # CH2
408 1 2 0.000000 8.275024 18.331257 97.405121 # CH3
409 1 2 0.000000 12.601929 13.186200 82.337929 # CH3
410 1 1 0.000000 11.605263 14.322788 82.043953 # CH2
411 1 1 0.000000 10.140932 13.858909 81.933723 # CH2
412 1 1 0.000000 9.144265 14.995498 81.639748 # CH2
413 1 1 0.000000 7.679935 14.531618 81.529510 # CH2
414 1 1 0.000000 6.683268 15.668207 81.235535 # CH2
415 1 1 0.000000 5.218937 15.204328 81.125298 # CH2
416 1 2 0.000000 4.222271 16.340916 80.831322 # CH3
417 1 2 0.000000 21.516186 20.389072 188.857590 # CH3
418 1 1 0.000000 20.962152 18.965168 189.050308 # CH2
419 1 1 0.000000 19.475340 18.815828 188.677902 # CH2
420 1 1 0.000000 18.921307 17.391924 188.870621 # CH2
421 1 1 0.000000 17.434496 17.242584 188.498215 # CH2
422 1 1 0.000000 16.880463 15.818680 188.690933 # CH2
423 1 1 0.000000 15.393649 15.669341 188.318527 # CH2
424 1 2 0.000000 14.839617 14.245436 188.511261 # CH3
425 1 2 0.000000 14.933904 4.350366 208.143112 # CH3
426 1 1 0.000000 14.474024 5.667467 207.490921 # CH2
427 1 1 0.000000 15.299069 6.897207 207.913574 # CH2
428 1 1 0.000000 14.839190 8.214309 207.261383 # CH2
429 1 1 0.000000 15.664235 9.444048 207.684052 # CH2
430 1 1 0.000000 15.204355 10.761150 207.031845 # CH2
431 1 1 0.000000 16.029402 11.990891 207.454514 # CH2
432 1 2 0.000000 15.569521 13.307991 206.802322 # CH3
433 1 2 0.000000 15.503032 7.371955 196.171997 # CH3
434 1 1 0.000000 16.115700 7.445733 194.761047 # CH2
435 1 1 0.000000 16.019838 6.129747 193.966949 # CH2
436 1 1 0.000000 16.632505 6.203525 192.556000 # CH2
437 1 1 0.000000 16.536646 4.887540 191.761902 # CH2
438 1 1 0.000000 17.149313 4.961317 190.350937 # CH2
439 1 1 0.000000 17.053452 3.645332 189.556839 # CH2
440 1 2 0.000000 17.666119 3.719110 188.145889 # CH3
441 1 2 0.000000 23.048639 8.248495 220.530716 # CH3
442 1 1 0.000000 21.509827 8.308666 220.525024 # CH2
443 1 1 0.000000 20.828981 6.927360 220.518509 # CH2
444 1 1 0.000000 19.290169 6.987530 220.512817 # CH2
445 1 1 0.000000 18.609324 5.606224 220.506287 # CH2
446 1 1 0.000000 17.070511 5.666395 220.500595 # CH2
447 1 1 0.000000 16.389664 4.285088 220.494064 # CH2
448 1 2 0.000000 14.850851 4.345259 220.488373 # CH3
449 1 2 0.000000 10.878082 14.488498 59.132015 # CH3
450 1 1 0.000000 10.991656 15.134181 60.525497 # CH2
451 1 1 0.000000 9.673171 15.142821 61.321190 # CH2
452 1 1 0.000000 9.786745 15.788504 62.714676 # CH2
453 1 1 0.000000 8.468261 15.797145 63.510365 # CH2
454 1 1 0.000000 8.581835 16.442827 64.903847 # CH2
455 1 1 0.000000 7.263351 16.451468 65.699539 # CH2
456 1 2 0.000000 7.376924 17.097151 67.093025 # CH3
457 1 2 0.000000 8.989776 8.798155 71.986450 # CH3
458 1 1 0.000000 8.092836 10.025871 72.231010 # CH2
459 1 1 0.000000 6.626155 9.824541 71.806847 # CH2
460 1 1 0.000000 5.729213 11.052257 72.051407 # CH2
461 1 1 0.000000 4.262533 10.850926 71.627243 # CH2
462 1 1 0.000000 3.365592 12.078643 71.871803 # CH2
463 1 1 0.000000 1.898911 11.877312 71.447639 # CH2
464 1 2 0.000000 1.001970 13.105028 71.692200 # CH3
465 1 2 0.000000 12.853891 10.312021 55.461998 # CH3
466 1 1 0.000000 14.371644 10.365201 55.206661 # CH2
467 1 1 0.000000 14.983480 9.016406 54.784752 # CH2
468 1 1 0.000000 16.501234 9.069586 54.529415 # CH2
469 1 1 0.000000 17.113070 7.720791 54.107506 # CH2
470 1 1 0.000000 18.630823 7.773971 53.852165 # CH2
471 1 1 0.000000 19.242659 6.425176 53.430256 # CH2
472 1 2 0.000000 20.760412 6.478356 53.174919 # CH3
473 1 2 0.000000 19.038868 16.491924 67.422600 # CH3
474 1 1 0.000000 19.921360 16.626440 66.167725 # CH2
475 1 1 0.000000 20.279709 18.080044 65.806854 # CH2
476 1 1 0.000000 21.162203 18.214560 64.551979 # CH2
477 1 1 0.000000 21.520552 19.668161 64.191116 # CH2
478 1 1 0.000000 22.403046 19.802679 62.936237 # CH2
479 1 1 0.000000 22.761395 21.256283 62.575371 # CH2
480 1 2 0.000000 23.643887 21.390799 61.320499 # CH3
481 1 2 0.000000 8.432503 5.744952 133.346878 # CH3
482 1 1 0.000000 8.080086 6.990288 134.181458 # CH2
483 1 1 0.000000 7.853034 6.698709 135.676468 # CH2
484 1 1 0.000000 7.500616 7.944045 136.511063 # CH2
485 1 1 0.000000 7.273566 7.652466 138.006058 # CH2
486 1 1 0.000000 6.921148 8.897802 138.840652 # CH2
487 1 1 0.000000 6.694096 8.606224 140.335648 # CH2
488 1 2 0.000000 6.341679 9.851559 141.170242 # CH3
489 1 2 0.000000 14.058082 4.160237 99.228401 # CH3
490 1 1 0.000000 15.408776 4.883868 99.381973 # CH2
491 1 1 0.000000 16.616579 3.936390 99.504845 # CH2
492 1 1 0.000000 17.967274 4.660021 99.658409 # CH2
493 1 1 0.000000 19.175076 3.712543 99.781281 # CH2
494 1 1 0.000000 20.525770 4.436174 99.934845 # CH2
495 1 1 0.000000 21.733574 3.488696 100.057716 # CH2
496 1 2 0.000000 23.084267 4.212328 100.211288 # CH3
497 1 2 0.000000 16.225233 10.405715 28.161739 # CH3
498 1 1 0.000000 14.927919 9.693239 27.736355 # CH2
499 1 1 0.000000 13.892551 9.549397 28.867250 # CH2
500 1 1 0.000000 12.595236 8.836921 28.441866 # CH2
501 1 1 0.000000 11.559869 8.693079 29.572762 # CH2
502 1 1 0.000000 10.262554 7.980603 29.147377 # CH2
503 1 1 0.000000 9.227186 7.836761 30.278273 # CH2
504 1 2 0.000000 7.929872 7.124286 29.852888 # CH3
505 1 2 0.000000 18.709423 14.711747 142.087799 # CH3
506 1 1 0.000000 17.432453 13.854747 142.168427 # CH2
507 1 1 0.000000 16.166374 14.567684 141.658173 # CH2
508 1 1 0.000000 14.889405 13.710684 141.738785 # CH2
509 1 1 0.000000 13.623326 14.423622 141.228531 # CH2
510 1 1 0.000000 12.346357 13.566621 141.309158 # CH2
511 1 1 0.000000 11.080277 14.279559 140.798904 # CH2
512 1 2 0.000000 9.803309 13.422559 140.879532 # CH3
513 1 2 0.000000 16.401396 23.403896 124.893044 # CH3
514 1 1 0.000000 16.715679 22.137875 124.074501 # CH2
515 1 1 0.000000 18.212086 21.776924 124.028870 # CH2
516 1 1 0.000000 18.526369 20.510902 123.210327 # CH2
517 1 1 0.000000 20.022776 20.149954 123.164696 # CH2
518 1 1 0.000000 20.337059 18.883930 122.346153 # CH2
519 1 1 0.000000 21.833466 18.522982 122.300514 # CH2
520 1 2 0.000000 22.147749 17.256958 121.481972 # CH3
521 1 2 0.000000 8.803278 24.023911 97.061485 # CH3
522 1 1 0.000000 10.258468 23.565084 96.852921 # CH2
523 1 1 0.000000 10.421348 22.039448 96.720627 # CH2
524 1 1 0.000000 11.876539 21.580620 96.512062 # CH2
525 1 1 0.000000 12.039418 20.054981 96.379776 # CH2
526 1 1 0.000000 13.494609 19.596155 96.171211 # CH2
527 1 1 0.000000 13.657489 18.070517 96.038918 # CH2
528 1 2 0.000000 15.112679 17.611691 95.830353 # CH3
529 1 2 0.000000 12.384857 14.069760 101.483788 # CH3
530 1 1 0.000000 12.851151 14.992701 100.342583 # CH2
531 1 1 0.000000 13.096371 14.264043 99.008217 # CH2
532 1 1 0.000000 13.562665 15.186984 97.867012 # CH2
533 1 1 0.000000 13.807884 14.458325 96.532654 # CH2
534 1 1 0.000000 14.274178 15.381266 95.391449 # CH2
535 1 1 0.000000 14.519398 14.652607 94.057083 # CH2
536 1 2 0.000000 14.985692 15.575548 92.915878 # CH3
537 1 2 0.000000 19.810005 9.983270 108.556267 # CH3
538 1 1 0.000000 20.020309 9.887460 110.078827 # CH2
539 1 1 0.000000 21.416553 10.337076 110.547813 # CH2
540 1 1 0.000000 21.626858 10.241266 112.070374 # CH2
541 1 1 0.000000 23.023102 10.690883 112.539360 # CH2
542 1 1 0.000000 23.233406 10.595072 114.061920 # CH2
543 1 1 0.000000 24.629650 11.044689 114.530907 # CH2
544 1 2 0.000000 24.839954 10.948878 116.053467 # CH3
545 1 2 0.000000 20.947514 8.280115 146.465393 # CH3
546 1 1 0.000000 21.546753 9.697392 146.403442 # CH2
547 1 1 0.000000 20.741899 10.680255 145.532928 # CH2
548 1 1 0.000000 21.341139 12.097532 145.470978 # CH2
549 1 1 0.000000 20.536285 13.080395 144.600464 # CH2
550 1 1 0.000000 21.135527 14.497672 144.538513 # CH2
551 1 1 0.000000 20.330671 15.480535 143.667999 # CH2
552 1 2 0.000000 20.929913 16.897812 143.606049 # CH3
553 1 2 0.000000 9.652409 10.687687 114.705399 # CH3
554 1 1 0.000000 10.804241 11.709440 114.735458 # CH2
555 1 1 0.000000 12.095930 11.217366 114.056488 # CH2
556 1 1 0.000000 13.247762 12.239119 114.086555 # CH2
557 1 1 0.000000 14.539451 11.747045 113.407585 # CH2
558 1 1 0.000000 15.691283 12.768798 113.437653 # CH2
559 1 1 0.000000 16.982973 12.276724 112.758682 # CH2