LAMMPS data file. CGCMM style. atom_style full generated by VMD/TopoTools v1.7 on Sun Feb 25 15:57:40 EST 2018
 1551 atoms
 1034 bonds
 517 angles
 0 dihedrals
 0 impropers
 2 atom types
 1 bond types
 1 angle types
 0 dihedral types
 0 improper types
 0.017086 19.397085  xlo xhi
 0.001534 19.381533  ylo yhi
 0.056913 129.276914  zlo zhi

# Pair Coeffs
#
# 1  CH2
# 2  CH3

# Bond Coeffs
#
# 1  

# Angle Coeffs
#
# 1  CH3-CH2-CH3

 Masses

 1 14.027000 # CH2
 2 15.035000 # CH3

 Atoms # full

1 1 2 0.000000 1.902729 16.038837 124.703445 # CH3 
2 1 1 0.000000 1.247070 16.598473 123.426842 # CH2 
3 1 2 0.000000 2.041637 16.131207 122.193077 # CH3 
4 1 2 0.000000 15.992284 9.005885 108.777138 # CH3 
5 1 1 0.000000 14.800758 8.486119 109.603523 # CH2 
6 1 2 0.000000 14.935110 8.968714 111.059853 # CH3 
7 1 2 0.000000 17.041466 6.227582 14.233890 # CH3 
8 1 1 0.000000 17.605934 7.418510 13.436479 # CH2 
9 1 2 0.000000 16.584095 8.570758 13.440096 # CH3 
10 1 2 0.000000 11.370651 8.837522 127.632759 # CH3 
11 1 1 0.000000 11.667181 8.245289 126.242027 # CH2 
12 1 2 0.000000 10.342097 7.910278 125.532265 # CH3 
13 1 2 0.000000 5.385604 9.508282 58.677120 # CH3 
14 1 1 0.000000 5.921355 10.764078 57.963860 # CH2 
15 1 2 0.000000 5.332662 12.023133 58.627235 # CH3 
16 1 2 0.000000 9.646774 7.195695 91.051857 # CH3 
17 1 1 0.000000 9.735045 5.945199 91.946991 # CH2 
18 1 2 0.000000 8.798217 4.852732 91.398613 # CH3 
19 1 2 0.000000 15.555644 11.034027 44.297791 # CH3 
20 1 1 0.000000 15.852957 10.857246 45.798840 # CH2 
21 1 2 0.000000 14.919749 9.781420 46.384987 # CH3 
22 1 2 0.000000 15.034206 3.560450 6.337091 # CH3 
23 1 1 0.000000 16.465979 3.507962 6.902836 # CH2 
24 1 2 0.000000 16.829920 2.051760 7.247605 # CH3 
25 1 2 0.000000 16.462793 16.666786 121.355400 # CH3 
26 1 1 0.000000 17.437332 15.492840 121.143456 # CH2 
27 1 2 0.000000 16.834555 14.499883 120.132248 # CH3 
28 1 2 0.000000 11.991170 12.982762 33.507397 # CH3 
29 1 1 0.000000 13.255751 12.590135 34.294464 # CH2 
30 1 2 0.000000 13.910191 13.854911 34.880890 # CH3 
31 1 2 0.000000 12.372060 6.066154 95.804497 # CH3 
32 1 1 0.000000 11.426180 5.939971 97.013710 # CH2 
33 1 2 0.000000 10.390062 7.078826 96.977509 # CH3 
34 1 2 0.000000 11.489849 16.878250 8.780269 # CH3 
35 1 1 0.000000 12.442716 16.869417 9.990543 # CH2 
36 1 2 0.000000 13.427132 18.048534 9.878967 # CH3 
37 1 2 0.000000 15.771874 16.950342 61.741398 # CH3 
38 1 1 0.000000 17.108295 16.457808 62.328072 # CH2 
39 1 2 0.000000 17.663403 17.514309 63.301472 # CH3 
40 1 2 0.000000 18.333824 3.224130 102.827209 # CH3 
41 1 1 0.000000 17.049894 3.846290 102.246490 # CH2 
42 1 2 0.000000 16.011311 4.025123 103.369522 # CH3 
43 1 2 0.000000 7.817102 14.533682 45.431988 # CH3 
44 1 1 0.000000 9.203944 13.868043 45.511940 # CH2 
45 1 2 0.000000 9.120244 12.609045 46.394981 # CH3 
46 1 2 0.000000 12.416930 9.776337 53.334915 # CH3 
47 1 1 0.000000 13.694872 9.088536 52.818588 # CH2 
48 1 2 0.000000 13.582021 8.867565 51.298630 # CH3 
49 1 2 0.000000 3.457943 13.692183 81.419655 # CH3 
50 1 1 0.000000 2.787585 12.482537 80.741295 # CH2 
51 1 2 0.000000 1.270265 12.725629 80.638885 # CH3 
52 1 2 0.000000 6.246450 1.680370 80.328171 # CH3 
53 1 1 0.000000 5.623150 2.656970 79.313011 # CH2 
54 1 2 0.000000 6.548202 3.875581 79.136635 # CH3 
55 1 2 0.000000 17.325800 4.192086 86.731003 # CH3 
56 1 1 0.000000 17.445013 2.707782 87.125252 # CH2 
57 1 2 0.000000 16.055101 2.046950 87.067886 # CH3 
58 1 2 0.000000 5.206473 14.250406 30.484524 # CH3 
59 1 1 0.000000 4.980389 12.902826 29.773390 # CH2 
60 1 2 0.000000 3.851168 12.130758 30.480930 # CH3 
61 1 2 0.000000 11.171685 6.468645 58.960011 # CH3 
62 1 1 0.000000 11.516380 5.188962 58.174900 # CH2 
63 1 2 0.000000 12.947963 4.741091 58.523933 # CH3 
64 1 2 0.000000 7.208361 12.399624 38.859077 # CH3 
65 1 1 0.000000 6.908827 13.672840 39.672710 # CH2 
66 1 2 0.000000 5.963660 13.327870 40.838684 # CH3 
67 1 2 0.000000 8.853738 4.757029 53.171124 # CH3 
68 1 1 0.000000 7.346024 4.877437 52.879406 # CH2 
69 1 2 0.000000 6.683889 3.493437 53.013451 # CH3 
70 1 2 0.000000 15.359648 7.025960 40.454250 # CH3 
71 1 1 0.000000 15.860320 7.695987 41.747768 # CH2 
72 1 2 0.000000 17.138412 6.986909 42.233082 # CH3 
73 1 2 0.000000 12.541304 14.853849 96.967865 # CH3 
74 1 1 0.000000 13.006375 13.395703 97.141983 # CH2 
75 1 2 0.000000 14.209130 13.125539 96.218819 # CH3 
76 1 2 0.000000 15.662822 12.118537 27.569321 # CH3 
77 1 1 0.000000 15.149475 10.952854 28.435610 # CH2 
78 1 2 0.000000 16.253105 9.887190 28.570534 # CH3 
79 1 2 0.000000 4.193043 8.998420 113.450615 # CH3 
80 1 1 0.000000 4.196301 9.922066 114.683365 # CH2 
81 1 2 0.000000 2.822689 10.605384 114.817940 # CH3 
82 1 2 0.000000 15.151841 6.596830 125.058884 # CH3 
83 1 1 0.000000 16.541601 7.245329 125.203163 # CH2 
84 1 2 0.000000 16.495251 8.686925 124.663254 # CH3 
85 1 2 0.000000 8.052084 5.163922 64.427414 # CH3 
86 1 1 0.000000 9.498545 4.846188 64.851196 # CH2 
87 1 2 0.000000 9.731407 3.325201 64.786232 # CH3 
88 1 2 0.000000 7.538569 15.778497 13.813756 # CH3 
89 1 1 0.000000 8.152475 15.864230 15.223922 # CH2 
90 1 2 0.000000 7.324696 16.834347 16.087345 # CH3 
91 1 2 0.000000 11.122666 13.021981 86.632416 # CH3 
92 1 1 0.000000 10.699422 12.154034 87.832550 # CH2 
93 1 2 0.000000 11.953158 11.665310 88.581642 # CH3 
94 1 2 0.000000 2.709326 1.902129 76.167686 # CH3 
95 1 1 0.000000 1.932943 3.035452 76.864548 # CH2 
96 1 2 0.000000 0.985799 3.707771 75.853233 # CH3 
97 1 2 0.000000 16.642488 5.801019 84.882759 # CH3 
98 1 1 0.000000 17.132921 7.044856 84.117813 # CH2 
99 1 2 0.000000 18.380987 7.618358 84.814423 # CH3 
100 1 2 0.000000 15.763144 6.411364 38.206360 # CH3 
101 1 1 0.000000 16.385303 5.131513 38.796021 # CH2 
102 1 2 0.000000 17.741253 4.859226 38.118446 # CH3 
103 1 2 0.000000 1.622693 11.321973 53.979298 # CH3 
104 1 1 0.000000 2.540266 12.336356 54.687740 # CH2 
105 1 2 0.000000 3.869096 11.653975 55.062450 # CH3 
106 1 2 0.000000 8.234659 11.026920 45.151489 # CH3 
107 1 1 0.000000 6.808840 11.080468 45.731983 # CH2 
108 1 2 0.000000 6.194465 12.466342 45.460430 # CH3 
109 1 2 0.000000 13.395193 12.601521 102.836800 # CH3 
110 1 1 0.000000 13.150291 13.059395 104.287033 # CH2 
111 1 2 0.000000 14.401094 12.767664 105.136871 # CH3 
112 1 2 0.000000 10.929109 16.231405 115.153099 # CH3 
113 1 1 0.000000 10.905339 17.769707 115.229675 # CH2 
114 1 2 0.000000 12.252570 18.330263 114.737137 # CH3 
115 1 2 0.000000 12.648736 5.300104 105.582741 # CH3 
116 1 1 0.000000 12.180665 4.250829 106.608765 # CH2 
117 1 2 0.000000 13.370590 3.361160 107.014244 # CH3 
118 1 2 0.000000 15.580799 5.030581 121.512566 # CH3 
119 1 1 0.000000 14.367742 4.352423 122.176941 # CH2 
120 1 2 0.000000 13.298769 5.412825 122.500488 # CH3 
121 1 2 0.000000 7.784206 12.035528 35.510399 # CH3 
122 1 1 0.000000 6.338007 12.485882 35.230240 # CH2 
123 1 2 0.000000 5.417030 11.252837 35.173286 # CH3 
124 1 2 0.000000 18.038177 4.162159 22.483028 # CH3 
125 1 1 0.000000 18.256577 4.071790 24.005177 # CH2 
126 1 2 0.000000 17.012562 3.450816 24.667492 # CH3 
127 1 2 0.000000 5.552356 7.841672 40.669575 # CH3 
128 1 1 0.000000 4.134501 8.045481 40.103054 # CH2 
129 1 2 0.000000 3.278294 6.799984 40.398842 # CH3 
130 1 2 0.000000 15.761798 16.042250 74.533699 # CH3 
131 1 1 0.000000 15.607932 17.523417 74.139656 # CH2 
132 1 2 0.000000 16.332718 18.408184 75.171021 # CH3 
133 1 2 0.000000 13.247808 6.210205 30.213804 # CH3 
134 1 1 0.000000 11.981096 7.070692 30.047066 # CH2 
135 1 2 0.000000 10.736184 6.219811 30.360176 # CH3 
136 1 2 0.000000 15.714103 12.459664 35.655788 # CH3 
137 1 1 0.000000 16.468451 13.797126 35.533504 # CH2 
138 1 2 0.000000 15.521193 14.956883 35.893383 # CH3 
139 1 2 0.000000 3.427066 7.060230 74.383827 # CH3 
140 1 1 0.000000 2.041674 6.470682 74.709282 # CH2 
141 1 2 0.000000 0.972647 7.572922 74.590584 # CH3 
142 1 2 0.000000 16.313292 3.251818 54.066833 # CH3 
143 1 1 0.000000 16.071552 3.731689 55.510471 # CH2 
144 1 2 0.000000 14.801533 3.063177 56.069027 # CH3 
145 1 2 0.000000 8.600981 7.107268 17.533813 # CH3 
146 1 1 0.000000 8.721845 6.144962 16.337088 # CH2 
147 1 2 0.000000 9.729448 6.712658 15.320081 # CH3 
148 1 2 0.000000 9.737470 11.694402 77.481255 # CH3 
149 1 1 0.000000 10.540407 10.626221 76.715042 # CH2 
150 1 2 0.000000 11.878201 10.373457 77.434944 # CH3 
151 1 2 0.000000 15.384636 16.589479 67.733650 # CH3 
152 1 1 0.000000 14.658175 15.271308 67.405815 # CH2 
153 1 2 0.000000 14.733460 14.326630 68.619797 # CH3 
154 1 2 0.000000 8.576815 14.055029 53.881264 # CH3 
155 1 1 0.000000 8.367257 15.491795 54.395645 # CH2 
156 1 2 0.000000 9.717495 16.232187 54.418484 # CH3 
157 1 2 0.000000 13.272706 16.284966 98.732819 # CH3 
158 1 1 0.000000 12.773320 17.721651 98.489204 # CH2 
159 1 2 0.000000 11.828092 18.138439 99.631424 # CH3 
160 1 2 0.000000 12.958016 1.361344 66.905800 # CH3 
161 1 1 0.000000 14.444759 1.134046 67.238564 # CH2 
162 1 2 0.000000 15.308265 2.130772 66.443115 # CH3 
163 1 2 0.000000 10.838591 10.231530 54.852959 # CH3 
164 1 1 0.000000 11.516902 11.612285 54.774174 # CH2 
165 1 2 0.000000 10.676088 12.548700 53.886478 # CH3 
166 1 2 0.000000 16.875740 6.250098 62.544559 # CH3 
167 1 1 0.000000 16.998779 7.643258 61.898987 # CH2 
168 1 2 0.000000 15.678891 8.414782 62.084705 # CH3 
169 1 2 0.000000 14.451910 10.317733 80.898270 # CH3 
170 1 1 0.000000 15.476919 9.236944 81.290764 # CH2 
171 1 2 0.000000 15.266966 7.986864 80.416084 # CH3 
172 1 2 0.000000 10.998076 8.562249 65.443260 # CH3 
173 1 1 0.000000 10.232629 8.345452 64.124214 # CH2 
174 1 2 0.000000 9.958857 6.842494 63.929249 # CH3 
175 1 2 0.000000 5.821884 15.722767 8.547960 # CH3 
176 1 1 0.000000 5.894694 17.255589 8.413978 # CH2 
177 1 2 0.000000 4.920776 17.722967 7.316305 # CH3 
178 1 2 0.000000 16.181726 5.357023 52.857262 # CH3 
179 1 1 0.000000 16.561260 5.406225 51.365173 # CH2 
180 1 2 0.000000 18.046377 5.033654 51.199471 # CH3 
181 1 2 0.000000 1.238174 9.958434 79.034134 # CH3 
182 1 1 0.000000 2.725753 9.911886 78.636971 # CH2 
183 1 2 0.000000 3.068562 11.145325 77.780838 # CH3 
184 1 2 0.000000 16.237459 15.918472 103.844917 # CH3 
185 1 1 0.000000 15.618053 14.556550 103.478447 # CH2 
186 1 2 0.000000 16.675205 13.449035 103.644836 # CH3 
187 1 2 0.000000 5.728533 13.865317 62.120255 # CH3 
188 1 1 0.000000 5.716051 13.059732 60.807369 # CH2 
189 1 2 0.000000 6.726564 11.901615 60.904697 # CH3 
190 1 2 0.000000 11.833997 4.311981 13.951023 # CH3 
191 1 1 0.000000 11.448693 5.776020 14.235505 # CH2 
192 1 2 0.000000 12.638530 6.695280 13.902200 # CH3 
193 1 2 0.000000 13.195983 4.615776 48.264267 # CH3 
194 1 1 0.000000 14.463124 3.964288 48.849689 # CH2 
195 1 2 0.000000 14.077744 2.682050 49.610737 # CH3 
196 1 2 0.000000 15.807996 15.103828 63.755123 # CH3 
197 1 1 0.000000 17.022919 14.226562 64.111717 # CH2 
198 1 2 0.000000 16.650827 12.741136 63.947708 # CH3 
199 1 2 0.000000 4.619567 8.858078 51.478466 # CH3 
200 1 1 0.000000 4.050334 10.171902 50.910454 # CH2 
201 1 2 0.000000 3.174298 10.856374 51.976238 # CH3 
202 1 2 0.000000 9.396395 10.674091 115.141930 # CH3 
203 1 1 0.000000 8.571579 9.791170 116.097404 # CH2 
204 1 2 0.000000 7.158211 10.382689 116.253410 # CH3 
205 1 2 0.000000 15.162191 14.690472 77.051201 # CH3 
206 1 1 0.000000 14.596322 15.710464 78.057289 # CH2 
207 1 2 0.000000 13.209030 15.244584 78.537102 # CH3 
208 1 2 0.000000 14.175452 5.125742 110.899376 # CH3 
209 1 1 0.000000 15.640109 5.421774 111.273460 # CH2 
210 1 2 0.000000 16.466904 4.125770 111.180573 # CH3 
211 1 2 0.000000 5.703452 13.774551 88.501831 # CH3 
212 1 1 0.000000 6.576102 14.776535 87.722534 # CH2 
213 1 2 0.000000 6.638455 14.360886 86.240913 # CH3 
214 1 2 0.000000 5.064234 14.903077 27.345642 # CH3 
215 1 1 0.000000 6.593540 14.813114 27.506664 # CH2 
216 1 2 0.000000 7.130564 13.636293 26.670876 # CH3 
217 1 2 0.000000 10.769872 13.253953 70.438454 # CH3 
218 1 1 0.000000 10.557777 14.680545 70.979424 # CH2 
219 1 2 0.000000 11.848305 15.168475 71.663750 # CH3 
220 1 2 0.000000 11.816772 6.572167 51.102200 # CH3 
221 1 1 0.000000 10.588637 7.401416 51.522709 # CH2 
222 1 2 0.000000 10.934188 8.900905 51.459682 # CH3 
223 1 2 0.000000 6.225599 5.632692 107.489777 # CH3 
224 1 1 0.000000 6.108923 7.138027 107.794983 # CH2 
225 1 2 0.000000 4.806337 7.687439 107.184036 # CH3 
226 1 2 0.000000 14.827250 14.230891 94.242317 # CH3 
227 1 1 0.000000 13.501294 14.954221 93.939941 # CH2 
228 1 2 0.000000 13.220046 15.994368 95.040321 # CH3 
229 1 2 0.000000 3.086066 13.239540 78.617371 # CH3 
230 1 1 0.000000 3.608286 14.473832 77.858025 # CH2 
231 1 2 0.000000 5.091757 14.701016 78.203781 # CH3 
232 1 2 0.000000 15.657074 10.657658 62.996456 # CH3 
233 1 1 0.000000 16.221764 10.181031 64.348030 # CH2 
234 1 2 0.000000 16.224310 8.641539 64.390472 # CH3 
235 1 2 0.000000 10.367287 9.644999 102.058876 # CH3 
236 1 1 0.000000 9.243801 10.176183 102.969055 # CH2 
237 1 2 0.000000 9.607278 11.588438 103.464294 # CH3 
238 1 2 0.000000 15.712627 13.449129 15.170359 # CH3 
239 1 1 0.000000 17.112835 13.319052 14.541631 # CH2 
240 1 2 0.000000 18.158203 13.953469 15.477881 # CH3 
241 1 2 0.000000 9.119750 10.586547 51.213345 # CH3 
242 1 1 0.000000 8.507893 10.171745 52.564777 # CH2 
243 1 2 0.000000 8.239878 11.427385 53.415295 # CH3 
244 1 2 0.000000 7.373296 9.043178 40.263599 # CH3 
245 1 1 0.000000 8.114564 7.981820 39.428829 # CH2 
246 1 2 0.000000 9.491581 7.701265 40.058876 # CH3 
247 1 2 0.000000 7.000303 9.371646 125.595520 # CH3 
248 1 1 0.000000 6.260580 8.189500 124.941193 # CH2 
249 1 2 0.000000 7.184931 6.958066 124.909721 # CH3 
250 1 2 0.000000 2.346606 8.539243 88.700714 # CH3 
251 1 1 0.000000 3.650250 9.354869 88.610909 # CH2 
252 1 2 0.000000 3.330282 10.786314 88.141403 # CH3 
253 1 2 0.000000 5.863267 14.805614 48.412949 # CH3 
254 1 1 0.000000 4.704787 13.846741 48.079357 # CH2 
255 1 2 0.000000 3.416152 14.338774 48.764313 # CH3 
256 1 2 0.000000 7.502965 7.715766 83.216881 # CH3 
257 1 1 0.000000 5.962789 7.691840 83.225899 # CH2 
258 1 2 0.000000 5.424700 9.115494 82.990288 # CH3 
259 1 2 0.000000 14.605119 14.160373 27.841784 # CH3 
260 1 1 0.000000 15.608136 14.159952 29.010866 # CH2 
261 1 2 0.000000 15.057067 13.296987 30.161283 # CH3 
262 1 2 0.000000 4.078933 15.765887 69.531776 # CH3 
263 1 1 0.000000 4.594574 14.473847 68.870300 # CH2 
264 1 2 0.000000 5.470814 14.832053 67.655502 # CH3 
265 1 2 0.000000 11.657625 16.302034 81.746338 # CH3 
266 1 1 0.000000 12.603823 16.307289 80.530823 # CH2 
267 1 2 0.000000 11.896102 16.963568 79.330704 # CH3 
268 1 2 0.000000 16.799351 4.776204 97.845963 # CH3 
269 1 1 0.000000 15.921594 5.449294 98.918015 # CH2 
270 1 2 0.000000 15.062462 6.547643 98.264282 # CH3 
271 1 2 0.000000 4.522120 11.290053 125.229164 # CH3 
272 1 1 0.000000 5.107680 10.899431 123.859001 # CH2 
273 1 2 0.000000 6.623788 11.169992 123.851357 # CH3 
274 1 2 0.000000 8.290105 14.769415 8.568475 # CH3 
275 1 1 0.000000 7.683605 15.536157 9.758879 # CH2 
276 1 2 0.000000 8.490301 15.228099 11.034098 # CH3 
277 1 2 0.000000 9.844660 11.659448 117.286659 # CH3 
278 1 1 0.000000 9.834533 13.183143 117.512596 # CH2 
279 1 2 0.000000 8.402096 13.720142 117.334831 # CH3 
280 1 2 0.000000 15.259338 3.844939 61.403934 # CH3 
281 1 1 0.000000 14.406144 2.562419 61.403900 # CH2 
282 1 2 0.000000 12.912620 2.938009 61.391140 # CH3 
283 1 2 0.000000 1.526703 9.097929 66.362503 # CH3 
284 1 1 0.000000 1.979531 8.923818 64.900513 # CH2 
285 1 2 0.000000 3.119077 9.913280 64.593513 # CH3 
286 1 2 0.000000 11.932593 10.265195 92.187469 # CH3 
287 1 1 0.000000 12.325979 9.436511 93.424942 # CH2 
288 1 2 0.000000 11.091036 8.683358 93.953636 # CH3 
289 1 2 0.000000 4.450361 3.653694 91.642891 # CH3 
290 1 1 0.000000 5.862141 4.185580 91.331810 # CH2 
291 1 2 0.000000 5.899063 5.708805 91.556007 # CH3 
292 1 2 0.000000 4.069007 7.209867 53.316380 # CH3 
293 1 1 0.000000 5.443067 6.704583 53.795383 # CH2 
294 1 2 0.000000 5.247401 5.665173 54.914841 # CH3 
295 1 2 0.000000 2.814565 9.015081 124.146553 # CH3 
296 1 1 0.000000 3.087322 7.741818 123.323631 # CH2 
297 1 2 0.000000 4.417338 7.111346 123.776848 # CH3 
298 1 2 0.000000 6.612036 9.726160 37.753674 # CH3 
299 1 1 0.000000 7.843314 8.958067 37.237160 # CH2 
300 1 2 0.000000 8.117106 9.349651 35.773075 # CH3 
301 1 2 0.000000 10.357296 14.840407 65.310150 # CH3 
302 1 1 0.000000 11.697194 14.120878 65.065720 # CH2 
303 1 2 0.000000 12.857464 15.115822 65.254677 # CH3 
304 1 2 0.000000 2.366880 14.786348 33.153240 # CH3 
305 1 1 0.000000 1.971604 16.217924 33.562073 # CH2 
306 1 2 0.000000 2.744749 17.231737 32.698200 # CH3 
307 1 2 0.000000 10.584277 14.572415 31.378576 # CH3 
308 1 1 0.000000 10.809529 15.899906 30.630360 # CH2 
309 1 2 0.000000 9.691226 16.100708 29.590687 # CH3 
310 1 2 0.000000 9.758522 7.267205 34.643620 # CH3 
311 1 1 0.000000 9.792254 7.384802 33.108097 # CH2 
312 1 2 0.000000 10.976985 6.570544 32.555611 # CH3 
313 1 2 0.000000 2.895050 15.168091 89.084312 # CH3 
314 1 1 0.000000 3.120870 14.540583 90.472855 # CH2 
315 1 2 0.000000 1.774912 14.056594 91.043816 # CH3 
316 1 2 0.000000 1.306946 16.224785 78.778000 # CH3 
317 1 1 0.000000 1.976173 16.416502 80.152107 # CH2 
318 1 2 0.000000 3.230310 17.296501 79.995316 # CH3 
319 1 2 0.000000 8.343378 10.448471 68.315742 # CH3 
320 1 1 0.000000 9.184850 9.215216 68.694954 # CH2 
321 1 2 0.000000 8.437388 7.934596 68.278831 # CH3 
322 1 2 0.000000 15.493112 11.499174 83.854324 # CH3 
323 1 1 0.000000 14.875179 10.091564 83.756393 # CH2 
324 1 2 0.000000 13.901861 9.874140 84.929939 # CH3 
325 1 2 0.000000 3.005423 18.446285 13.529245 # CH3 
326 1 1 0.000000 1.971582 17.328575 13.763114 # CH2 
327 1 2 0.000000 2.686260 15.964690 13.793042 # CH3 
328 1 2 0.000000 8.983641 16.242493 35.057941 # CH3 
329 1 1 0.000000 10.396817 16.703604 35.461803 # CH2 
330 1 2 0.000000 11.424989 15.634652 35.047020 # CH3 
331 1 2 0.000000 9.963897 5.099882 48.521164 # CH3 
332 1 1 0.000000 10.068329 3.587708 48.795433 # CH2 
333 1 2 0.000000 8.691014 2.930748 48.587463 # CH3 
334 1 2 0.000000 16.975702 15.944499 38.483551 # CH3 
335 1 1 0.000000 16.792027 17.448799 38.207615 # CH2 
336 1 2 0.000000 16.806204 17.698650 36.688004 # CH3 
337 1 2 0.000000 13.038198 8.019613 122.329170 # CH3 
338 1 1 0.000000 12.046687 9.057540 122.888107 # CH2 
339 1 2 0.000000 12.821821 10.161060 123.631920 # CH3 
340 1 2 0.000000 14.372557 12.734589 66.782837 # CH3 
341 1 1 0.000000 13.286285 12.802796 67.872864 # CH2 
342 1 2 0.000000 12.202456 13.814650 67.456558 # CH3 
343 1 2 0.000000 9.446622 2.504058 56.500309 # CH3 
344 1 1 0.000000 8.191766 2.339137 55.622280 # CH2 
345 1 2 0.000000 8.251945 0.986929 54.887596 # CH3 
346 1 2 0.000000 13.347630 14.243769 13.600079 # CH3 
347 1 1 0.000000 14.811259 14.653526 13.349707 # CH2 
348 1 2 0.000000 14.965954 16.169880 13.570129 # CH3 
349 1 2 0.000000 3.155083 10.557998 56.873554 # CH3 
350 1 1 0.000000 2.527722 11.935801 57.157944 # CH2 
351 1 2 0.000000 3.641143 12.954825 57.464092 # CH3 
352 1 2 0.000000 14.484758 8.962485 58.425194 # CH3 
353 1 1 0.000000 13.864819 7.566384 58.623627 # CH2 
354 1 2 0.000000 14.742673 6.509886 57.927185 # CH3 
355 1 2 0.000000 5.486058 8.009712 70.309021 # CH3 
356 1 1 0.000000 6.871942 8.671103 70.187836 # CH2 
357 1 2 0.000000 6.779769 10.143541 70.629730 # CH3 
358 1 2 0.000000 7.117576 10.824052 21.377613 # CH3 
359 1 1 0.000000 7.539997 12.305316 21.362963 # CH2 
360 1 2 0.000000 6.286943 13.198356 21.427624 # CH3 
361 1 2 0.000000 9.894239 16.927414 109.221306 # CH3 
362 1 1 0.000000 9.023817 15.663227 109.351669 # CH2 
363 1 2 0.000000 7.537559 16.046614 109.225594 # CH3 
364 1 2 0.000000 6.110329 4.272615 32.831470 # CH3 
365 1 1 0.000000 4.973761 3.475698 32.163685 # CH2 
366 1 2 0.000000 5.533936 2.158497 31.595327 # CH3 
367 1 2 0.000000 15.183261 2.344071 81.254036 # CH3 
368 1 1 0.000000 16.502941 1.755168 80.720711 # CH2 
369 1 2 0.000000 17.481777 2.898474 80.394249 # CH3 
370 1 2 0.000000 11.481164 14.376571 118.811058 # CH3 
371 1 1 0.000000 12.941596 14.232140 119.279114 # CH2 
372 1 2 0.000000 13.274948 15.355196 120.278847 # CH3 
373 1 2 0.000000 5.191451 11.172011 7.977653 # CH3 
374 1 1 0.000000 5.184520 10.247143 9.209469 # CH2 
375 1 2 0.000000 5.759696 11.001656 10.422617 # CH3 
376 1 2 0.000000 5.916044 10.673370 103.441002 # CH3 
377 1 1 0.000000 7.105738 9.704101 103.574951 # CH2 
378 1 2 0.000000 6.686627 8.304618 103.087471 # CH3 
379 1 2 0.000000 17.586739 5.069255 89.253304 # CH3 
380 1 1 0.000000 16.444431 6.053925 88.939682 # CH2 
381 1 2 0.000000 15.126490 5.275591 88.769180 # CH3 
382 1 2 0.000000 6.669835 15.875778 42.283894 # CH3 
383 1 1 0.000000 5.738321 14.731300 42.725765 # CH2 
384 1 2 0.000000 4.323697 15.286582 42.975452 # CH3 
385 1 2 0.000000 18.471773 12.967474 76.819717 # CH3 
386 1 1 0.000000 16.984320 13.273936 76.562119 # CH2 
387 1 2 0.000000 16.863791 14.513081 75.655563 # CH3 
388 1 2 0.000000 6.331050 12.547295 50.696899 # CH3 
389 1 1 0.000000 5.677032 12.017490 49.406799 # CH2 
390 1 2 0.000000 5.732605 10.478450 49.396317 # CH3 
391 1 2 0.000000 10.215265 14.551855 104.376816 # CH3 
392 1 1 0.000000 9.798090 15.196310 105.712265 # CH2 
393 1 2 0.000000 9.919500 16.727818 105.604607 # CH3 
394 1 2 0.000000 4.197068 11.001278 104.773651 # CH3 
395 1 1 0.000000 4.043010 9.496517 105.064789 # CH2 
396 1 2 0.000000 2.550655 9.155042 105.232468 # CH3 
397 1 2 0.000000 1.793236 14.857391 6.815994 # CH3 
398 1 1 0.000000 3.081411 15.021169 5.987393 # CH2 
399 1 2 0.000000 4.163620 14.066116 6.524556 # CH3 
400 1 2 0.000000 8.508707 10.033542 110.288345 # CH3 
401 1 1 0.000000 9.507283 8.880212 110.075104 # CH2 
402 1 2 0.000000 10.505800 9.262499 108.966652 # CH3 
403 1 2 0.000000 11.235879 12.480711 92.629982 # CH3 
404 1 1 0.000000 9.902272 13.211339 92.384071 # CH2 
405 1 2 0.000000 9.243452 12.662928 91.104599 # CH3 
406 1 2 0.000000 12.744604 1.111359 4.711998 # CH3 
407 1 1 0.000000 12.364966 1.245250 3.225140 # CH2 
408 1 2 0.000000 11.329743 2.373176 3.057986 # CH3 
409 1 2 0.000000 3.398858 17.372198 76.186630 # CH3 
410 1 1 0.000000 4.889691 17.441738 76.567924 # CH2 
411 1 2 0.000000 5.029459 17.991123 77.999878 # CH3 
412 1 2 0.000000 11.703037 15.461765 51.458126 # CH3 
413 1 1 0.000000 10.875243 16.625446 50.880718 # CH2 
414 1 2 0.000000 9.536087 16.087240 50.343281 # CH3 
415 1 2 0.000000 15.997761 16.834400 48.611530 # CH3 
416 1 1 0.000000 15.445163 15.488229 49.116756 # CH2 
417 1 2 0.000000 16.211987 15.059417 50.381645 # CH3 
418 1 2 0.000000 5.138616 14.803549 36.806622 # CH3 
419 1 1 0.000000 4.227034 15.393581 37.899178 # CH2 
420 1 2 0.000000 5.090048 15.912574 39.064381 # CH3 
421 1 2 0.000000 16.256660 2.397461 109.691124 # CH3 
422 1 1 0.000000 15.038819 2.979744 108.949097 # CH2 
423 1 2 0.000000 13.774709 2.792292 109.808594 # CH3 
424 1 2 0.000000 12.502736 14.477432 27.287024 # CH3 
425 1 1 0.000000 12.127044 15.844522 27.889284 # CH2 
426 1 2 0.000000 12.919076 16.956161 27.175991 # CH3 
427 1 2 0.000000 10.182180 9.070505 48.611504 # CH3 
428 1 1 0.000000 9.661144 7.755055 49.220528 # CH2 
429 1 2 0.000000 8.218668 7.955769 49.721352 # CH3 
430 1 2 0.000000 18.209301 11.510638 36.826664 # CH3 
431 1 1 0.000000 18.386417 12.972444 36.374390 # CH2 
432 1 2 0.000000 18.080406 13.916159 37.552357 # CH3 
433 1 2 0.000000 13.225930 17.934086 35.719166 # CH3 
434 1 1 0.000000 13.384114 16.605261 36.482056 # CH2 
435 1 2 0.000000 14.739318 16.590082 37.213516 # CH3 
436 1 2 0.000000 0.966550 9.690319 40.298546 # CH3 
437 1 1 0.000000 2.021367 8.570517 40.377293 # CH2 
438 1 2 0.000000 2.238477 8.170729 41.848644 # CH3 
439 1 2 0.000000 18.383072 10.397447 41.500446 # CH3 
440 1 1 0.000000 17.333393 9.327018 41.146671 # CH2 
441 1 2 0.000000 16.965044 9.440600 39.655613 # CH3 
442 1 2 0.000000 3.955892 13.247160 23.711409 # CH3 
443 1 1 0.000000 4.128473 14.429102 22.738770 # CH2 
444 1 2 0.000000 5.554133 14.997273 22.867310 # CH3 
445 1 2 0.000000 12.582409 9.829040 72.478760 # CH3 
446 1 1 0.000000 11.246629 10.570454 72.675720 # CH2 
447 1 2 0.000000 11.481248 12.089158 72.574051 # CH3 
448 1 2 0.000000 8.235013 13.302872 79.412750 # CH3 
449 1 1 0.000000 7.379117 13.026686 78.162163 # CH2 
450 1 2 0.000000 6.088201 12.294502 78.573608 # CH3 
451 1 2 0.000000 18.166920 3.205755 13.857980 # CH3 
452 1 1 0.000000 17.308151 2.343136 14.802014 # CH2 
453 1 2 0.000000 18.089092 2.068023 16.100586 # CH3 
454 1 2 0.000000 4.395356 10.069893 46.811970 # CH3 
455 1 1 0.000000 3.859028 9.133581 45.712666 # CH2 
456 1 2 0.000000 5.005771 8.252938 45.182297 # CH3 
457 1 2 0.000000 7.958991 5.354813 102.415466 # CH3 
458 1 1 0.000000 8.880488 6.490026 102.900162 # CH2 
459 1 2 0.000000 10.343898 6.140804 102.571045 # CH3 
460 1 2 0.000000 14.661529 16.029144 26.003189 # CH3 
461 1 1 0.000000 15.194637 17.380381 25.490591 # CH2 
462 1 2 0.000000 15.241118 18.389563 26.653021 # CH3 
463 1 2 0.000000 12.690570 12.752682 107.249611 # CH3 
464 1 1 0.000000 12.735519 11.416000 106.485374 # CH2 
465 1 2 0.000000 11.399570 11.198138 105.750786 # CH3 
466 1 2 0.000000 12.212505 5.106168 6.679434 # CH3 
467 1 1 0.000000 10.786538 5.003834 6.105897 # CH2 
468 1 2 0.000000 10.737318 3.888082 5.045463 # CH3 
469 1 2 0.000000 7.762265 4.622632 60.184246 # CH3 
470 1 1 0.000000 7.132432 5.069168 58.851315 # CH2 
471 1 2 0.000000 6.662255 3.831667 58.064312 # CH3 
472 1 2 0.000000 2.740943 14.929776 97.751633 # CH3 
473 1 1 0.000000 3.956614 15.450029 98.541748 # CH2 
474 1 2 0.000000 4.821343 14.260069 98.997910 # CH3 
475 1 2 0.000000 11.754924 6.357447 100.603958 # CH3 
476 1 1 0.000000 11.265031 7.658297 101.267723 # CH2 
477 1 2 0.000000 12.448377 8.630566 101.429680 # CH3 
478 1 2 0.000000 14.441844 10.319572 126.352943 # CH3 
479 1 1 0.000000 14.485785 11.843705 126.571777 # CH2 
480 1 2 0.000000 14.405682 12.149615 128.079041 # CH3 
481 1 2 0.000000 9.751299 11.789566 33.600639 # CH3 
482 1 1 0.000000 9.000812 13.097111 33.916702 # CH2 
483 1 2 0.000000 9.598027 13.740118 35.182293 # CH3 
484 1 2 0.000000 1.871249 3.553775 122.166374 # CH3 
485 1 1 0.000000 2.157636 2.824594 120.840073 # CH2 
486 1 2 0.000000 3.563926 2.198753 120.890236 # CH3 
487 1 2 0.000000 11.859528 11.779922 82.182877 # CH3 
488 1 1 0.000000 12.790142 12.802044 81.503151 # CH2 
489 1 2 0.000000 14.187964 12.732176 82.145844 # CH3 
490 1 2 0.000000 15.926585 16.158512 28.087111 # CH3 
491 1 1 0.000000 17.116982 15.214830 27.831736 # CH2 
492 1 2 0.000000 18.422522 16.031067 27.797573 # CH3 
493 1 2 0.000000 16.402826 4.527093 42.748119 # CH3 
494 1 1 0.000000 17.359335 4.821052 43.919220 # CH2 
495 1 2 0.000000 16.542040 5.078354 45.198936 # CH3 
496 1 2 0.000000 16.098452 3.150578 34.862026 # CH3 
497 1 1 0.000000 17.052944 3.765911 33.821304 # CH2 
498 1 2 0.000000 16.450682 5.076973 33.282566 # CH3 
499 1 2 0.000000 16.486057 10.927359 127.129936 # CH3 
500 1 1 0.000000 17.779804 11.694369 127.462677 # CH2 
501 1 2 0.000000 17.469763 13.198035 127.583946 # CH3 
502 1 2 0.000000 7.423872 16.211113 77.252449 # CH3 
503 1 1 0.000000 6.273536 15.647019 76.397270 # CH2 
504 1 2 0.000000 6.313925 16.284281 74.995804 # CH3 
505 1 2 0.000000 2.585610 7.875007 9.829559 # CH3 
506 1 1 0.000000 3.008761 7.754068 11.305741 # CH2 
507 1 2 0.000000 1.925987 6.990060 12.090429 # CH3 
508 1 2 0.000000 13.343297 17.674824 91.463081 # CH3 
509 1 1 0.000000 14.569337 16.997272 92.103828 # CH2 
510 1 2 0.000000 14.934482 17.724672 93.411270 # CH3 
511 1 2 0.000000 8.132286 9.550617 46.865425 # CH3 
512 1 1 0.000000 7.566355 8.322840 47.603725 # CH2 
513 1 2 0.000000 6.029290 8.410199 47.644287 # CH3 
514 1 2 0.000000 8.581247 5.293549 1.496577 # CH3 
515 1 1 0.000000 8.922151 6.256655 2.649404 # CH2 
516 1 2 0.000000 7.912878 7.419845 2.663591 # CH3 
517 1 2 0.000000 10.144832 13.345154 81.416801 # CH3 
518 1 1 0.000000 10.475500 14.420506 80.364624 # CH2 
519 1 2 0.000000 9.697319 15.710320 80.685028 # CH3 
520 1 2 0.000000 6.212179 4.418868 67.452591 # CH3 
521 1 1 0.000000 5.026997 4.404745 66.468750 # CH2 
522 1 2 0.000000 5.373053 5.257737 65.234047 # CH3 
523 1 2 0.000000 3.438105 5.907855 109.439156 # CH3 
524 1 1 0.000000 4.734892 5.182989 109.846230 # CH2 
525 1 2 0.000000 4.497986 3.661261 109.838203 # CH3 
526 1 2 0.000000 17.459139 6.985524 112.750259 # CH3 
527 1 1 0.000000 16.782583 7.439738 111.443062 # CH2 
528 1 2 0.000000 17.821148 7.459295 110.306030 # CH3 
529 1 2 0.000000 5.262614 13.607612 114.195511 # CH3 
530 1 1 0.000000 5.615735 14.467095 112.966934 # CH2 
531 1 2 0.000000 4.450357 14.429802 111.960777 # CH3 
532 1 2 0.000000 13.575548 8.479512 28.350052 # CH3 
533 1 1 0.000000 12.266806 8.917021 27.665525 # CH2 
534 1 2 0.000000 11.070498 8.562418 28.568270 # CH3 
535 1 2 0.000000 7.154736 11.519653 6.675936 # CH3 
536 1 1 0.000000 7.485105 10.037091 6.419684 # CH2 
537 1 2 0.000000 8.262602 9.904389 5.096909 # CH3 
538 1 2 0.000000 12.536036 16.587027 24.038517 # CH3 
539 1 1 0.000000 13.743900 15.649279 23.852797 # CH2 
540 1 2 0.000000 13.294493 14.188170 24.039986 # CH3 
541 1 2 0.000000 12.930254 9.489898 112.738182 # CH3 
542 1 1 0.000000 13.391854 10.871578 113.238869 # CH2 
543 1 2 0.000000 14.667971 10.711844 114.086128 # CH3 
544 1 2 0.000000 11.304390 12.816704 37.727879 # CH3 
545 1 1 0.000000 11.903009 12.883755 36.310150 # CH2 
546 1 2 0.000000 11.330251 11.738042 35.455086 # CH3 
547 1 2 0.000000 12.518558 8.916351 80.291359 # CH3 
548 1 1 0.000000 11.755429 7.709089 80.868378 # CH2 
549 1 2 0.000000 12.761004 6.640367 81.335815 # CH3 
550 1 2 0.000000 17.951391 6.904412 70.417694 # CH3 
551 1 1 0.000000 17.392065 7.504742 71.721359 # CH2 
552 1 2 0.000000 15.868106 7.289022 71.774811 # CH3 
553 1 2 0.000000 8.059268 15.495307 101.812683 # CH3 
554 1 1 0.000000 6.640242 15.907386 101.377541 # CH2 
555 1 2 0.000000 5.774436 14.648051 101.187012 # CH3 
556 1 2 0.000000 12.100629 2.002940 39.035393 # CH3 