# lammps data file generated from mof_screen/packmol_to_lammps.py
1260 atoms
1620 bonds
1620 angles
0 dihedrals
0 impropers
1 atom types
1 bond types
1 angle types
0 dihedral types
0 improper types
0.00000   30.00000 xlo xhi
0.00000   30.00000 ylo yhi
0.00000  200.00000 zlo zhi


 Masses

1 39.948

 Atoms

1 1 1 0 0.0 0.0 0.0
2 1 1 0 3.3333333333333335 0.0 0.0
3 1 1 0 6.666666666666667 0.0 0.0
4 1 1 0 0.0 3.3333333333333335 0.0
5 1 1 0 0.0 6.666666666666667 0.0
6 1 1 0 0.0 0.0 3.3333333333333335
7 1 1 0 0.0 0.0 6.666666666666667
8 1 1 0 10.0 0.0 0.0
9 1 1 0 13.333333333333334 0.0 0.0
10 1 1 0 16.666666666666668 0.0 0.0
11 1 1 0 10.0 3.3333333333333335 0.0
12 1 1 0 10.0 6.666666666666667 0.0
13 1 1 0 10.0 0.0 3.3333333333333335
14 1 1 0 10.0 0.0 6.666666666666667
15 1 1 0 20.0 0.0 0.0
16 1 1 0 23.333333333333332 0.0 0.0
17 1 1 0 26.666666666666668 0.0 0.0
18 1 1 0 20.0 3.3333333333333335 0.0
19 1 1 0 20.0 6.666666666666667 0.0
20 1 1 0 20.0 0.0 3.3333333333333335
21 1 1 0 20.0 0.0 6.666666666666667
22 1 1 0 0.0 10.0 0.0
23 1 1 0 3.3333333333333335 10.0 0.0
24 1 1 0 6.666666666666667 10.0 0.0
25 1 1 0 0.0 13.333333333333334 0.0
26 1 1 0 0.0 16.666666666666668 0.0
27 1 1 0 0.0 10.0 3.3333333333333335
28 1 1 0 0.0 10.0 6.666666666666667
29 1 1 0 10.0 10.0 0.0
30 1 1 0 13.333333333333334 10.0 0.0
31 1 1 0 16.666666666666668 10.0 0.0
32 1 1 0 10.0 13.333333333333334 0.0
33 1 1 0 10.0 16.666666666666668 0.0
34 1 1 0 10.0 10.0 3.3333333333333335
35 1 1 0 10.0 10.0 6.666666666666667
36 1 1 0 20.0 10.0 0.0
37 1 1 0 23.333333333333332 10.0 0.0
38 1 1 0 26.666666666666668 10.0 0.0
39 1 1 0 20.0 13.333333333333334 0.0
40 1 1 0 20.0 16.666666666666668 0.0
41 1 1 0 20.0 10.0 3.3333333333333335
42 1 1 0 20.0 10.0 6.666666666666667
43 1 1 0 0.0 20.0 0.0
44 1 1 0 3.3333333333333335 20.0 0.0
45 1 1 0 6.666666666666667 20.0 0.0
46 1 1 0 0.0 23.333333333333332 0.0
47 1 1 0 0.0 26.666666666666668 0.0
48 1 1 0 0.0 20.0 3.3333333333333335
49 1 1 0 0.0 20.0 6.666666666666667
50 1 1 0 10.0 20.0 0.0
51 1 1 0 13.333333333333334 20.0 0.0
52 1 1 0 16.666666666666668 20.0 0.0
53 1 1 0 10.0 23.333333333333332 0.0
54 1 1 0 10.0 26.666666666666668 0.0
55 1 1 0 10.0 20.0 3.3333333333333335
56 1 1 0 10.0 20.0 6.666666666666667
57 1 1 0 20.0 20.0 0.0
58 1 1 0 23.333333333333332 20.0 0.0
59 1 1 0 26.666666666666668 20.0 0.0
60 1 1 0 20.0 23.333333333333332 0.0
61 1 1 0 20.0 26.666666666666668 0.0
62 1 1 0 20.0 20.0 3.3333333333333335
63 1 1 0 20.0 20.0 6.666666666666667
64 1 1 0 0.0 0.0 10.0
65 1 1 0 3.3333333333333335 0.0 10.0
66 1 1 0 6.666666666666667 0.0 10.0
67 1 1 0 0.0 3.3333333333333335 10.0
68 1 1 0 0.0 6.666666666666667 10.0
69 1 1 0 0.0 0.0 13.333333333333334
70 1 1 0 0.0 0.0 16.666666666666668
71 1 1 0 10.0 0.0 10.0
72 1 1 0 13.333333333333334 0.0 10.0
73 1 1 0 16.666666666666668 0.0 10.0
74 1 1 0 10.0 3.3333333333333335 10.0
75 1 1 0 10.0 6.666666666666667 10.0
76 1 1 0 10.0 0.0 13.333333333333334
77 1 1 0 10.0 0.0 16.666666666666668
78 1 1 0 20.0 0.0 10.0
79 1 1 0 23.333333333333332 0.0 10.0
80 1 1 0 26.666666666666668 0.0 10.0
81 1 1 0 20.0 3.3333333333333335 10.0
82 1 1 0 20.0 6.666666666666667 10.0
83 1 1 0 20.0 0.0 13.333333333333334
84 1 1 0 20.0 0.0 16.666666666666668
85 1 1 0 0.0 10.0 10.0
86 1 1 0 3.3333333333333335 10.0 10.0
87 1 1 0 6.666666666666667 10.0 10.0
88 1 1 0 0.0 13.333333333333334 10.0
89 1 1 0 0.0 16.666666666666668 10.0
90 1 1 0 0.0 10.0 13.333333333333334
91 1 1 0 0.0 10.0 16.666666666666668
92 1 1 0 10.0 10.0 10.0
93 1 1 0 13.333333333333334 10.0 10.0
94 1 1 0 16.666666666666668 10.0 10.0
95 1 1 0 10.0 13.333333333333334 10.0
96 1 1 0 10.0 16.666666666666668 10.0
97 1 1 0 10.0 10.0 13.333333333333334
98 1 1 0 10.0 10.0 16.666666666666668
99 1 1 0 20.0 10.0 10.0
100 1 1 0 23.333333333333332 10.0 10.0
101 1 1 0 26.666666666666668 10.0 10.0
102 1 1 0 20.0 13.333333333333334 10.0
103 1 1 0 20.0 16.666666666666668 10.0
104 1 1 0 20.0 10.0 13.333333333333334
105 1 1 0 20.0 10.0 16.666666666666668
106 1 1 0 0.0 20.0 10.0
107 1 1 0 3.3333333333333335 20.0 10.0
108 1 1 0 6.666666666666667 20.0 10.0
109 1 1 0 0.0 23.333333333333332 10.0
110 1 1 0 0.0 26.666666666666668 10.0
111 1 1 0 0.0 20.0 13.333333333333334
112 1 1 0 0.0 20.0 16.666666666666668
113 1 1 0 10.0 20.0 10.0
114 1 1 0 13.333333333333334 20.0 10.0
115 1 1 0 16.666666666666668 20.0 10.0
116 1 1 0 10.0 23.333333333333332 10.0
117 1 1 0 10.0 26.666666666666668 10.0
118 1 1 0 10.0 20.0 13.333333333333334
119 1 1 0 10.0 20.0 16.666666666666668
120 1 1 0 20.0 20.0 10.0
121 1 1 0 23.333333333333332 20.0 10.0
122 1 1 0 26.666666666666668 20.0 10.0
123 1 1 0 20.0 23.333333333333332 10.0
124 1 1 0 20.0 26.666666666666668 10.0
125 1 1 0 20.0 20.0 13.333333333333334
126 1 1 0 20.0 20.0 16.666666666666668
127 1 1 0 0.0 0.0 20.0
128 1 1 0 3.3333333333333335 0.0 20.0
129 1 1 0 6.666666666666667 0.0 20.0
130 1 1 0 0.0 3.3333333333333335 20.0
131 1 1 0 0.0 6.666666666666667 20.0
132 1 1 0 0.0 0.0 23.333333333333332
133 1 1 0 0.0 0.0 26.666666666666668
134 1 1 0 10.0 0.0 20.0
135 1 1 0 13.333333333333334 0.0 20.0
136 1 1 0 16.666666666666668 0.0 20.0
137 1 1 0 10.0 3.3333333333333335 20.0
138 1 1 0 10.0 6.666666666666667 20.0
139 1 1 0 10.0 0.0 23.333333333333332
140 1 1 0 10.0 0.0 26.666666666666668
141 1 1 0 20.0 0.0 20.0
142 1 1 0 23.333333333333332 0.0 20.0
143 1 1 0 26.666666666666668 0.0 20.0
144 1 1 0 20.0 3.3333333333333335 20.0
145 1 1 0 20.0 6.666666666666667 20.0
146 1 1 0 20.0 0.0 23.333333333333332
147 1 1 0 20.0 0.0 26.666666666666668
148 1 1 0 0.0 10.0 20.0
149 1 1 0 3.3333333333333335 10.0 20.0
150 1 1 0 6.666666666666667 10.0 20.0
151 1 1 0 0.0 13.333333333333334 20.0
152 1 1 0 0.0 16.666666666666668 20.0
153 1 1 0 0.0 10.0 23.333333333333332
154 1 1 0 0.0 10.0 26.666666666666668
155 1 1 0 10.0 10.0 20.0
156 1 1 0 13.333333333333334 10.0 20.0
157 1 1 0 16.666666666666668 10.0 20.0
158 1 1 0 10.0 13.333333333333334 20.0
159 1 1 0 10.0 16.666666666666668 20.0
160 1 1 0 10.0 10.0 23.333333333333332
161 1 1 0 10.0 10.0 26.666666666666668
162 1 1 0 20.0 10.0 20.0
163 1 1 0 23.333333333333332 10.0 20.0
164 1 1 0 26.666666666666668 10.0 20.0
165 1 1 0 20.0 13.333333333333334 20.0
166 1 1 0 20.0 16.666666666666668 20.0
167 1 1 0 20.0 10.0 23.333333333333332
168 1 1 0 20.0 10.0 26.666666666666668
169 1 1 0 0.0 20.0 20.0
170 1 1 0 3.3333333333333335 20.0 20.0
171 1 1 0 6.666666666666667 20.0 20.0
172 1 1 0 0.0 23.333333333333332 20.0
173 1 1 0 0.0 26.666666666666668 20.0
174 1 1 0 0.0 20.0 23.333333333333332
175 1 1 0 0.0 20.0 26.666666666666668
176 1 1 0 10.0 20.0 20.0
177 1 1 0 13.333333333333334 20.0 20.0
178 1 1 0 16.666666666666668 20.0 20.0
179 1 1 0 10.0 23.333333333333332 20.0
180 1 1 0 10.0 26.666666666666668 20.0
181 1 1 0 10.0 20.0 23.333333333333332
182 1 1 0 10.0 20.0 26.666666666666668
183 1 1 0 20.0 20.0 20.0
184 1 1 0 23.333333333333332 20.0 20.0
185 1 1 0 26.666666666666668 20.0 20.0
186 1 1 0 20.0 23.333333333333332 20.0
187 1 1 0 20.0 26.666666666666668 20.0
188 1 1 0 20.0 20.0 23.333333333333332
189 1 1 0 20.0 20.0 26.666666666666668
190 1 1 0 0.0 0.0 30.0
191 1 1 0 3.3333333333333335 0.0 30.0
192 1 1 0 6.666666666666667 0.0 30.0
193 1 1 0 0.0 3.3333333333333335 30.0
194 1 1 0 0.0 6.666666666666667 30.0
195 1 1 0 0.0 0.0 33.333333333333336
196 1 1 0 0.0 0.0 36.666666666666664
197 1 1 0 10.0 0.0 30.0
198 1 1 0 13.333333333333334 0.0 30.0
199 1 1 0 16.666666666666668 0.0 30.0
200 1 1 0 10.0 3.3333333333333335 30.0
201 1 1 0 10.0 6.666666666666667 30.0
202 1 1 0 10.0 0.0 33.333333333333336
203 1 1 0 10.0 0.0 36.666666666666664
204 1 1 0 20.0 0.0 30.0
205 1 1 0 23.333333333333332 0.0 30.0
206 1 1 0 26.666666666666668 0.0 30.0
207 1 1 0 20.0 3.3333333333333335 30.0
208 1 1 0 20.0 6.666666666666667 30.0
209 1 1 0 20.0 0.0 33.333333333333336
210 1 1 0 20.0 0.0 36.666666666666664
211 1 1 0 0.0 10.0 30.0
212 1 1 0 3.3333333333333335 10.0 30.0
213 1 1 0 6.666666666666667 10.0 30.0
214 1 1 0 0.0 13.333333333333334 30.0
215 1 1 0 0.0 16.666666666666668 30.0
216 1 1 0 0.0 10.0 33.333333333333336
217 1 1 0 0.0 10.0 36.666666666666664
218 1 1 0 10.0 10.0 30.0
219 1 1 0 13.333333333333334 10.0 30.0
220 1 1 0 16.666666666666668 10.0 30.0
221 1 1 0 10.0 13.333333333333334 30.0
222 1 1 0 10.0 16.666666666666668 30.0
223 1 1 0 10.0 10.0 33.333333333333336
224 1 1 0 10.0 10.0 36.666666666666664
225 1 1 0 20.0 10.0 30.0
226 1 1 0 23.333333333333332 10.0 30.0
227 1 1 0 26.666666666666668 10.0 30.0
228 1 1 0 20.0 13.333333333333334 30.0
229 1 1 0 20.0 16.666666666666668 30.0
230 1 1 0 20.0 10.0 33.333333333333336
231 1 1 0 20.0 10.0 36.666666666666664
232 1 1 0 0.0 20.0 30.0
233 1 1 0 3.3333333333333335 20.0 30.0
234 1 1 0 6.666666666666667 20.0 30.0
235 1 1 0 0.0 23.333333333333332 30.0
236 1 1 0 0.0 26.666666666666668 30.0
237 1 1 0 0.0 20.0 33.333333333333336
238 1 1 0 0.0 20.0 36.666666666666664
239 1 1 0 10.0 20.0 30.0
240 1 1 0 13.333333333333334 20.0 30.0
241 1 1 0 16.666666666666668 20.0 30.0
242 1 1 0 10.0 23.333333333333332 30.0
243 1 1 0 10.0 26.666666666666668 30.0
244 1 1 0 10.0 20.0 33.333333333333336
245 1 1 0 10.0 20.0 36.666666666666664
246 1 1 0 20.0 20.0 30.0
247 1 1 0 23.333333333333332 20.0 30.0
248 1 1 0 26.666666666666668 20.0 30.0
249 1 1 0 20.0 23.333333333333332 30.0
250 1 1 0 20.0 26.666666666666668 30.0
251 1 1 0 20.0 20.0 33.333333333333336
252 1 1 0 20.0 20.0 36.666666666666664
253 1 1 0 0.0 0.0 40.0
254 1 1 0 3.3333333333333335 0.0 40.0
255 1 1 0 6.666666666666667 0.0 40.0
256 1 1 0 0.0 3.3333333333333335 40.0
257 1 1 0 0.0 6.666666666666667 40.0
258 1 1 0 0.0 0.0 43.333333333333336
259 1 1 0 0.0 0.0 46.666666666666664
260 1 1 0 10.0 0.0 40.0
261 1 1 0 13.333333333333334 0.0 40.0
262 1 1 0 16.666666666666668 0.0 40.0
263 1 1 0 10.0 3.3333333333333335 40.0
264 1 1 0 10.0 6.666666666666667 40.0
265 1 1 0 10.0 0.0 43.333333333333336
266 1 1 0 10.0 0.0 46.666666666666664
267 1 1 0 20.0 0.0 40.0
268 1 1 0 23.333333333333332 0.0 40.0
269 1 1 0 26.666666666666668 0.0 40.0
270 1 1 0 20.0 3.3333333333333335 40.0
271 1 1 0 20.0 6.666666666666667 40.0
272 1 1 0 20.0 0.0 43.333333333333336
273 1 1 0 20.0 0.0 46.666666666666664
274 1 1 0 0.0 10.0 40.0
275 1 1 0 3.3333333333333335 10.0 40.0
276 1 1 0 6.666666666666667 10.0 40.0
277 1 1 0 0.0 13.333333333333334 40.0
278 1 1 0 0.0 16.666666666666668 40.0
279 1 1 0 0.0 10.0 43.333333333333336
280 1 1 0 0.0 10.0 46.666666666666664
281 1 1 0 10.0 10.0 40.0
282 1 1 0 13.333333333333334 10.0 40.0
283 1 1 0 16.666666666666668 10.0 40.0
284 1 1 0 10.0 13.333333333333334 40.0
285 1 1 0 10.0 16.666666666666668 40.0
286 1 1 0 10.0 10.0 43.333333333333336
287 1 1 0 10.0 10.0 46.666666666666664
288 1 1 0 20.0 10.0 40.0
289 1 1 0 23.333333333333332 10.0 40.0
290 1 1 0 26.666666666666668 10.0 40.0
291 1 1 0 20.0 13.333333333333334 40.0
292 1 1 0 20.0 16.666666666666668 40.0
293 1 1 0 20.0 10.0 43.333333333333336
294 1 1 0 20.0 10.0 46.666666666666664
295 1 1 0 0.0 20.0 40.0
296 1 1 0 3.3333333333333335 20.0 40.0
297 1 1 0 6.666666666666667 20.0 40.0
298 1 1 0 0.0 23.333333333333332 40.0
299 1 1 0 0.0 26.666666666666668 40.0
300 1 1 0 0.0 20.0 43.333333333333336
301 1 1 0 0.0 20.0 46.666666666666664
302 1 1 0 10.0 20.0 40.0
303 1 1 0 13.333333333333334 20.0 40.0
304 1 1 0 16.666666666666668 20.0 40.0
305 1 1 0 10.0 23.333333333333332 40.0
306 1 1 0 10.0 26.666666666666668 40.0
307 1 1 0 10.0 20.0 43.333333333333336
308 1 1 0 10.0 20.0 46.666666666666664
309 1 1 0 20.0 20.0 40.0
310 1 1 0 23.333333333333332 20.0 40.0
311 1 1 0 26.666666666666668 20.0 40.0
312 1 1 0 20.0 23.333333333333332 40.0
313 1 1 0 20.0 26.666666666666668 40.0
314 1 1 0 20.0 20.0 43.333333333333336
315 1 1 0 20.0 20.0 46.666666666666664
316 1 1 0 0.0 0.0 50.0
317 1 1 0 3.3333333333333335 0.0 50.0
318 1 1 0 6.666666666666667 0.0 50.0
319 1 1 0 0.0 3.3333333333333335 50.0
320 1 1 0 0.0 6.666666666666667 50.0
321 1 1 0 0.0 0.0 53.333333333333336
322 1 1 0 0.0 0.0 56.666666666666664
323 1 1 0 10.0 0.0 50.0
324 1 1 0 13.333333333333334 0.0 50.0
325 1 1 0 16.666666666666668 0.0 50.0
326 1 1 0 10.0 3.3333333333333335 50.0
327 1 1 0 10.0 6.666666666666667 50.0
328 1 1 0 10.0 0.0 53.333333333333336
329 1 1 0 10.0 0.0 56.666666666666664
330 1 1 0 20.0 0.0 50.0
331 1 1 0 23.333333333333332 0.0 50.0
332 1 1 0 26.666666666666668 0.0 50.0
333 1 1 0 20.0 3.3333333333333335 50.0
334 1 1 0 20.0 6.666666666666667 50.0
335 1 1 0 20.0 0.0 53.333333333333336
336 1 1 0 20.0 0.0 56.666666666666664
337 1 1 0 0.0 10.0 50.0
338 1 1 0 3.3333333333333335 10.0 50.0
339 1 1 0 6.666666666666667 10.0 50.0
340 1 1 0 0.0 13.333333333333334 50.0
341 1 1 0 0.0 16.666666666666668 50.0
342 1 1 0 0.0 10.0 53.333333333333336
343 1 1 0 0.0 10.0 56.666666666666664
344 1 1 0 10.0 10.0 50.0
345 1 1 0 13.333333333333334 10.0 50.0
346 1 1 0 16.666666666666668 10.0 50.0
347 1 1 0 10.0 13.333333333333334 50.0
348 1 1 0 10.0 16.666666666666668 50.0
349 1 1 0 10.0 10.0 53.333333333333336
350 1 1 0 10.0 10.0 56.666666666666664
351 1 1 0 20.0 10.0 50.0
352 1 1 0 23.333333333333332 10.0 50.0
353 1 1 0 26.666666666666668 10.0 50.0
354 1 1 0 20.0 13.333333333333334 50.0
355 1 1 0 20.0 16.666666666666668 50.0
356 1 1 0 20.0 10.0 53.333333333333336
357 1 1 0 20.0 10.0 56.666666666666664
358 1 1 0 0.0 20.0 50.0
359 1 1 0 3.3333333333333335 20.0 50.0
360 1 1 0 6.666666666666667 20.0 50.0
361 1 1 0 0.0 23.333333333333332 50.0
362 1 1 0 0.0 26.666666666666668 50.0
363 1 1 0 0.0 20.0 53.333333333333336
364 1 1 0 0.0 20.0 56.666666666666664
365 1 1 0 10.0 20.0 50.0
366 1 1 0 13.333333333333334 20.0 50.0
367 1 1 0 16.666666666666668 20.0 50.0
368 1 1 0 10.0 23.333333333333332 50.0
369 1 1 0 10.0 26.666666666666668 50.0
370 1 1 0 10.0 20.0 53.333333333333336
371 1 1 0 10.0 20.0 56.666666666666664
372 1 1 0 20.0 20.0 50.0
373 1 1 0 23.333333333333332 20.0 50.0
374 1 1 0 26.666666666666668 20.0 50.0
375 1 1 0 20.0 23.333333333333332 50.0
376 1 1 0 20.0 26.666666666666668 50.0
377 1 1 0 20.0 20.0 53.333333333333336
378 1 1 0 20.0 20.0 56.666666666666664
379 1 1 0 0.0 0.0 60.0
380 1 1 0 3.3333333333333335 0.0 60.0
381 1 1 0 6.666666666666667 0.0 60.0
382 1 1 0 0.0 3.3333333333333335 60.0
383 1 1 0 0.0 6.666666666666667 60.0
384 1 1 0 0.0 0.0 63.333333333333336
385 1 1 0 0.0 0.0 66.66666666666667
386 1 1 0 10.0 0.0 60.0
387 1 1 0 13.333333333333334 0.0 60.0
388 1 1 0 16.666666666666668 0.0 60.0
389 1 1 0 10.0 3.3333333333333335 60.0
390 1 1 0 10.0 6.666666666666667 60.0
391 1 1 0 10.0 0.0 63.333333333333336
392 1 1 0 10.0 0.0 66.66666666666667
393 1 1 0 20.0 0.0 60.0
394 1 1 0 23.333333333333332 0.0 60.0
395 1 1 0 26.666666666666668 0.0 60.0
396 1 1 0 20.0 3.3333333333333335 60.0
397 1 1 0 20.0 6.666666666666667 60.0
398 1 1 0 20.0 0.0 63.333333333333336
399 1 1 0 20.0 0.0 66.66666666666667
400 1 1 0 0.0 10.0 60.0
401 1 1 0 3.3333333333333335 10.0 60.0
402 1 1 0 6.666666666666667 10.0 60.0
403 1 1 0 0.0 13.333333333333334 60.0
404 1 1 0 0.0 16.666666666666668 60.0
405 1 1 0 0.0 10.0 63.333333333333336
406 1 1 0 0.0 10.0 66.66666666666667
407 1 1 0 10.0 10.0 60.0
408 1 1 0 13.333333333333334 10.0 60.0
409 1 1 0 16.666666666666668 10.0 60.0
410 1 1 0 10.0 13.333333333333334 60.0
411 1 1 0 10.0 16.666666666666668 60.0
412 1 1 0 10.0 10.0 63.333333333333336
413 1 1 0 10.0 10.0 66.66666666666667
414 1 1 0 20.0 10.0 60.0
415 1 1 0 23.333333333333332 10.0 60.0
416 1 1 0 26.666666666666668 10.0 60.0
417 1 1 0 20.0 13.333333333333334 60.0
418 1 1 0 20.0 16.666666666666668 60.0
419 1 1 0 20.0 10.0 63.333333333333336
420 1 1 0 20.0 10.0 66.66666666666667
421 1 1 0 0.0 20.0 60.0
422 1 1 0 3.3333333333333335 20.0 60.0
423 1 1 0 6.666666666666667 20.0 60.0
424 1 1 0 0.0 23.333333333333332 60.0
425 1 1 0 0.0 26.666666666666668 60.0
426 1 1 0 0.0 20.0 63.333333333333336
427 1 1 0 0.0 20.0 66.66666666666667
428 1 1 0 10.0 20.0 60.0
429 1 1 0 13.333333333333334 20.0 60.0
430 1 1 0 16.666666666666668 20.0 60.0
431 1 1 0 10.0 23.333333333333332 60.0
432 1 1 0 10.0 26.666666666666668 60.0
433 1 1 0 10.0 20.0 63.333333333333336
434 1 1 0 10.0 20.0 66.66666666666667
435 1 1 0 20.0 20.0 60.0
436 1 1 0 23.333333333333332 20.0 60.0
437 1 1 0 26.666666666666668 20.0 60.0
438 1 1 0 20.0 23.333333333333332 60.0
439 1 1 0 20.0 26.666666666666668 60.0
440 1 1 0 20.0 20.0 63.333333333333336
441 1 1 0 20.0 20.0 66.66666666666667
442 1 1 0 0.0 0.0 70.0
443 1 1 0 3.3333333333333335 0.0 70.0
444 1 1 0 6.666666666666667 0.0 70.0
445 1 1 0 0.0 3.3333333333333335 70.0
446 1 1 0 0.0 6.666666666666667 70.0
447 1 1 0 0.0 0.0 73.33333333333333
448 1 1 0 0.0 0.0 76.66666666666667
449 1 1 0 10.0 0.0 70.0
450 1 1 0 13.333333333333334 0.0 70.0
451 1 1 0 16.666666666666668 0.0 70.0
452 1 1 0 10.0 3.3333333333333335 70.0
453 1 1 0 10.0 6.666666666666667 70.0
454 1 1 0 10.0 0.0 73.33333333333333
455 1 1 0 10.0 0.0 76.66666666666667
456 1 1 0 20.0 0.0 70.0
457 1 1 0 23.333333333333332 0.0 70.0
458 1 1 0 26.666666666666668 0.0 70.0
459 1 1 0 20.0 3.3333333333333335 70.0
460 1 1 0 20.0 6.666666666666667 70.0
461 1 1 0 20.0 0.0 73.33333333333333
462 1 1 0 20.0 0.0 76.66666666666667
463 1 1 0 0.0 10.0 70.0
464 1 1 0 3.3333333333333335 10.0 70.0
465 1 1 0 6.666666666666667 10.0 70.0
466 1 1 0 0.0 13.333333333333334 70.0
467 1 1 0 0.0 16.666666666666668 70.0
468 1 1 0 0.0 10.0 73.33333333333333
469 1 1 0 0.0 10.0 76.66666666666667
470 1 1 0 10.0 10.0 70.0
471 1 1 0 13.333333333333334 10.0 70.0
472 1 1 0 16.666666666666668 10.0 70.0
473 1 1 0 10.0 13.333333333333334 70.0
474 1 1 0 10.0 16.666666666666668 70.0
475 1 1 0 10.0 10.0 73.33333333333333
476 1 1 0 10.0 10.0 76.66666666666667
477 1 1 0 20.0 10.0 70.0
478 1 1 0 23.333333333333332 10.0 70.0
479 1 1 0 26.666666666666668 10.0 70.0
480 1 1 0 20.0 13.333333333333334 70.0
481 1 1 0 20.0 16.666666666666668 70.0
482 1 1 0 20.0 10.0 73.33333333333333
483 1 1 0 20.0 10.0 76.66666666666667
484 1 1 0 0.0 20.0 70.0
485 1 1 0 3.3333333333333335 20.0 70.0
486 1 1 0 6.666666666666667 20.0 70.0
487 1 1 0 0.0 23.333333333333332 70.0
488 1 1 0 0.0 26.666666666666668 70.0
489 1 1 0 0.0 20.0 73.33333333333333
490 1 1 0 0.0 20.0 76.66666666666667
491 1 1 0 10.0 20.0 70.0
492 1 1 0 13.333333333333334 20.0 70.0
493 1 1 0 16.666666666666668 20.0 70.0
494 1 1 0 10.0 23.333333333333332 70.0
495 1 1 0 10.0 26.666666666666668 70.0
496 1 1 0 10.0 20.0 73.33333333333333
497 1 1 0 10.0 20.0 76.66666666666667
498 1 1 0 20.0 20.0 70.0
499 1 1 0 23.333333333333332 20.0 70.0
500 1 1 0 26.666666666666668 20.0 70.0
501 1 1 0 20.0 23.333333333333332 70.0
502 1 1 0 20.0 26.666666666666668 70.0
503 1 1 0 20.0 20.0 73.33333333333333
504 1 1 0 20.0 20.0 76.66666666666667
505 1 1 0 0.0 0.0 80.0
506 1 1 0 3.3333333333333335 0.0 80.0
507 1 1 0 6.666666666666667 0.0 80.0
508 1 1 0 0.0 3.3333333333333335 80.0
509 1 1 0 0.0 6.666666666666667 80.0
510 1 1 0 0.0 0.0 83.33333333333333
511 1 1 0 0.0 0.0 86.66666666666667
512 1 1 0 10.0 0.0 80.0
513 1 1 0 13.333333333333334 0.0 80.0
514 1 1 0 16.666666666666668 0.0 80.0
515 1 1 0 10.0 3.3333333333333335 80.0
516 1 1 0 10.0 6.666666666666667 80.0
517 1 1 0 10.0 0.0 83.33333333333333
518 1 1 0 10.0 0.0 86.66666666666667
519 1 1 0 20.0 0.0 80.0
520 1 1 0 23.333333333333332 0.0 80.0
521 1 1 0 26.666666666666668 0.0 80.0
522 1 1 0 20.0 3.3333333333333335 80.0
523 1 1 0 20.0 6.666666666666667 80.0
524 1 1 0 20.0 0.0 83.33333333333333
525 1 1 0 20.0 0.0 86.66666666666667
526 1 1 0 0.0 10.0 80.0
527 1 1 0 3.3333333333333335 10.0 80.0
528 1 1 0 6.666666666666667 10.0 80.0
529 1 1 0 0.0 13.333333333333334 80.0
530 1 1 0 0.0 16.666666666666668 80.0
531 1 1 0 0.0 10.0 83.33333333333333
532 1 1 0 0.0 10.0 86.66666666666667
533 1 1 0 10.0 10.0 80.0
534 1 1 0 13.333333333333334 10.0 80.0
535 1 1 0 16.666666666666668 10.0 80.0
536 1 1 0 10.0 13.333333333333334 80.0
537 1 1 0 10.0 16.666666666666668 80.0
538 1 1 0 10.0 10.0 83.33333333333333
539 1 1 0 10.0 10.0 86.66666666666667
540 1 1 0 20.0 10.0 80.0
541 1 1 0 23.333333333333332 10.0 80.0
542 1 1 0 26.666666666666668 10.0 80.0
543 1 1 0 20.0 13.333333333333334 80.0
544 1 1 0 20.0 16.666666666666668 80.0
545 1 1 0 20.0 10.0 83.33333333333333
546 1 1 0 20.0 10.0 86.66666666666667
547 1 1 0 0.0 20.0 80.0
548 1 1 0 3.3333333333333335 20.0 80.0
549 1 1 0 6.666666666666667 20.0 80.0
550 1 1 0 0.0 23.333333333333332 80.0
551 1 1 0 0.0 26.666666666666668 80.0
552 1 1 0 0.0 20.0 83.33333333333333
553 1 1 0 0.0 20.0 86.66666666666667
554 1 1 0 10.0 20.0 80.0
555 1 1 0 13.333333333333334 20.0 80.0
556 1 1 0 16.666666666666668 20.0 80.0
557 1 1 0 10.0 23.333333333333332 80.0
558 1 1 0 10.0 26.666666666666668 80.0
559 1 1 0 10.0 20.0 83.33333333333333
560 1 1 0 10.0 20.0 86.66666666666667
561 1 1 0 20.0 20.0 80.0
562 1 1 0 23.333333333333332 20.0 80.0
563 1 1 0 26.666666666666668 20.0 80.0
564 1 1 0 20.0 23.333333333333332 80.0
565 1 1 0 20.0 26.666666666666668 80.0
566 1 1 0 20.0 20.0 83.33333333333333
567 1 1 0 20.0 20.0 86.66666666666667
568 1 1 0 0.0 0.0 90.0
569 1 1 0 3.3333333333333335 0.0 90.0
570 1 1 0 6.666666666666667 0.0 90.0
571 1 1 0 0.0 3.3333333333333335 90.0
572 1 1 0 0.0 6.666666666666667 90.0
573 1 1 0 0.0 0.0 93.33333333333333
574 1 1 0 0.0 0.0 96.66666666666667
575 1 1 0 10.0 0.0 90.0
576 1 1 0 13.333333333333334 0.0 90.0
577 1 1 0 16.666666666666668 0.0 90.0
578 1 1 0 10.0 3.3333333333333335 90.0
579 1 1 0 10.0 6.666666666666667 90.0
580 1 1 0 10.0 0.0 93.33333333333333
581 1 1 0 10.0 0.0 96.66666666666667
582 1 1 0 20.0 0.0 90.0
583 1 1 0 23.333333333333332 0.0 90.0
584 1 1 0 26.666666666666668 0.0 90.0
585 1 1 0 20.0 3.3333333333333335 90.0
586 1 1 0 20.0 6.666666666666667 90.0
587 1 1 0 20.0 0.0 93.33333333333333
588 1 1 0 20.0 0.0 96.66666666666667
589 1 1 0 0.0 10.0 90.0
590 1 1 0 3.3333333333333335 10.0 90.0
591 1 1 0 6.666666666666667 10.0 90.0
592 1 1 0 0.0 13.333333333333334 90.0
593 1 1 0 0.0 16.666666666666668 90.0
594 1 1 0 0.0 10.0 93.33333333333333
595 1 1 0 0.0 10.0 96.66666666666667
596 1 1 0 10.0 10.0 90.0
597 1 1 0 13.333333333333334 10.0 90.0
598 1 1 0 16.666666666666668 10.0 90.0
599 1 1 0 10.0 13.333333333333334 90.0
600 1 1 0 10.0 16.666666666666668 90.0
601 1 1 0 10.0 10.0 93.33333333333333
602 1 1 0 10.0 10.0 96.66666666666667
603 1 1 0 20.0 10.0 90.0
604 1 1 0 23.333333333333332 10.0 90.0
605 1 1 0 26.666666666666668 10.0 90.0
606 1 1 0 20.0 13.333333333333334 90.0
607 1 1 0 20.0 16.666666666666668 90.0
608 1 1 0 20.0 10.0 93.33333333333333
609 1 1 0 20.0 10.0 96.66666666666667
610 1 1 0 0.0 20.0 90.0
611 1 1 0 3.3333333333333335 20.0 90.0
612 1 1 0 6.666666666666667 20.0 90.0
613 1 1 0 0.0 23.333333333333332 90.0
614 1 1 0 0.0 26.666666666666668 90.0
615 1 1 0 0.0 20.0 93.33333333333333
616 1 1 0 0.0 20.0 96.66666666666667
617 1 1 0 10.0 20.0 90.0
618 1 1 0 13.333333333333334 20.0 90.0
619 1 1 0 16.666666666666668 20.0 90.0
620 1 1 0 10.0 23.333333333333332 90.0
621 1 1 0 10.0 26.666666666666668 90.0
622 1 1 0 10.0 20.0 93.33333333333333
623 1 1 0 10.0 20.0 96.66666666666667
624 1 1 0 20.0 20.0 90.0
625 1 1 0 23.333333333333332 20.0 90.0
626 1 1 0 26.666666666666668 20.0 90.0
627 1 1 0 20.0 23.333333333333332 90.0
628 1 1 0 20.0 26.666666666666668 90.0
629 1 1 0 20.0 20.0 93.33333333333333
630 1 1 0 20.0 20.0 96.66666666666667
631 1 1 0 0.0 0.0 100.0
632 1 1 0 3.3333333333333335 0.0 100.0
633 1 1 0 6.666666666666667 0.0 100.0
634 1 1 0 0.0 3.3333333333333335 100.0
635 1 1 0 0.0 6.666666666666667 100.0
636 1 1 0 0.0 0.0 103.33333333333333
637 1 1 0 0.0 0.0 106.66666666666667
638 1 1 0 10.0 0.0 100.0
639 1 1 0 13.333333333333334 0.0 100.0
640 1 1 0 16.666666666666668 0.0 100.0
641 1 1 0 10.0 3.3333333333333335 100.0
642 1 1 0 10.0 6.666666666666667 100.0
643 1 1 0 10.0 0.0 103.33333333333333
644 1 1 0 10.0 0.0 106.66666666666667
645 1 1 0 20.0 0.0 100.0
646 1 1 0 23.333333333333332 0.0 100.0
647 1 1 0 26.666666666666668 0.0 100.0
648 1 1 0 20.0 3.3333333333333335 100.0
649 1 1 0 20.0 6.666666666666667 100.0
650 1 1 0 20.0 0.0 103.33333333333333
651 1 1 0 20.0 0.0 106.66666666666667
652 1 1 0 0.0 10.0 100.0
653 1 1 0 3.3333333333333335 10.0 100.0
654 1 1 0 6.666666666666667 10.0 100.0
655 1 1 0 0.0 13.333333333333334 100.0
656 1 1 0 0.0 16.666666666666668 100.0
657 1 1 0 0.0 10.0 103.33333333333333
658 1 1 0 0.0 10.0 106.66666666666667
659 1 1 0 10.0 10.0 100.0
660 1 1 0 13.333333333333334 10.0 100.0
661 1 1 0 16.666666666666668 10.0 100.0
662 1 1 0 10.0 13.333333333333334 100.0
663 1 1 0 10.0 16.666666666666668 100.0
664 1 1 0 10.0 10.0 103.33333333333333
665 1 1 0 10.0 10.0 106.66666666666667
666 1 1 0 20.0 10.0 100.0
667 1 1 0 23.333333333333332 10.0 100.0
668 1 1 0 26.666666666666668 10.0 100.0
669 1 1 0 20.0 13.333333333333334 100.0
670 1 1 0 20.0 16.666666666666668 100.0
671 1 1 0 20.0 10.0 103.33333333333333
672 1 1 0 20.0 10.0 106.66666666666667
673 1 1 0 0.0 20.0 100.0
674 1 1 0 3.3333333333333335 20.0 100.0
675 1 1 0 6.666666666666667 20.0 100.0
676 1 1 0 0.0 23.333333333333332 100.0
677 1 1 0 0.0 26.666666666666668 100.0
678 1 1 0 0.0 20.0 103.33333333333333
679 1 1 0 0.0 20.0 106.66666666666667
680 1 1 0 10.0 20.0 100.0
681 1 1 0 13.333333333333334 20.0 100.0
682 1 1 0 16.666666666666668 20.0 100.0
683 1 1 0 10.0 23.333333333333332 100.0
684 1 1 0 10.0 26.666666666666668 100.0
685 1 1 0 10.0 20.0 103.33333333333333
686 1 1 0 10.0 20.0 106.66666666666667
687 1 1 0 20.0 20.0 100.0
688 1 1 0 23.333333333333332 20.0 100.0
689 1 1 0 26.666666666666668 20.0 100.0
690 1 1 0 20.0 23.333333333333332 100.0
691 1 1 0 20.0 26.666666666666668 100.0
692 1 1 0 20.0 20.0 103.33333333333333
693 1 1 0 20.0 20.0 106.66666666666667
694 1 1 0 0.0 0.0 110.0
695 1 1 0 3.3333333333333335 0.0 110.0
696 1 1 0 6.666666666666667 0.0 110.0
697 1 1 0 0.0 3.3333333333333335 110.0
698 1 1 0 0.0 6.666666666666667 110.0
699 1 1 0 0.0 0.0 113.33333333333333
700 1 1 0 0.0 0.0 116.66666666666667
701 1 1 0 10.0 0.0 110.0
702 1 1 0 13.333333333333334 0.0 110.0
703 1 1 0 16.666666666666668 0.0 110.0
704 1 1 0 10.0 3.3333333333333335 110.0
705 1 1 0 10.0 6.666666666666667 110.0
706 1 1 0 10.0 0.0 113.33333333333333
707 1 1 0 10.0 0.0 116.66666666666667
708 1 1 0 20.0 0.0 110.0
709 1 1 0 23.333333333333332 0.0 110.0
710 1 1 0 26.666666666666668 0.0 110.0
711 1 1 0 20.0 3.3333333333333335 110.0
712 1 1 0 20.0 6.666666666666667 110.0
713 1 1 0 20.0 0.0 113.33333333333333
714 1 1 0 20.0 0.0 116.66666666666667
715 1 1 0 0.0 10.0 110.0
716 1 1 0 3.3333333333333335 10.0 110.0
717 1 1 0 6.666666666666667 10.0 110.0
718 1 1 0 0.0 13.333333333333334 110.0
719 1 1 0 0.0 16.666666666666668 110.0
720 1 1 0 0.0 10.0 113.33333333333333
721 1 1 0 0.0 10.0 116.66666666666667
722 1 1 0 10.0 10.0 110.0
723 1 1 0 13.333333333333334 10.0 110.0
724 1 1 0 16.666666666666668 10.0 110.0
725 1 1 0 10.0 13.333333333333334 110.0
726 1 1 0 10.0 16.666666666666668 110.0
727 1 1 0 10.0 10.0 113.33333333333333
728 1 1 0 10.0 10.0 116.66666666666667
729 1 1 0 20.0 10.0 110.0
730 1 1 0 23.333333333333332 10.0 110.0
731 1 1 0 26.666666666666668 10.0 110.0
732 1 1 0 20.0 13.333333333333334 110.0
733 1 1 0 20.0 16.666666666666668 110.0
734 1 1 0 20.0 10.0 113.33333333333333
735 1 1 0 20.0 10.0 116.66666666666667
736 1 1 0 0.0 20.0 110.0
737 1 1 0 3.3333333333333335 20.0 110.0
738 1 1 0 6.666666666666667 20.0 110.0
739 1 1 0 0.0 23.333333333333332 110.0
740 1 1 0 0.0 26.666666666666668 110.0
741 1 1 0 0.0 20.0 113.33333333333333
742 1 1 0 0.0 20.0 116.66666666666667
743 1 1 0 10.0 20.0 110.0
744 1 1 0 13.333333333333334 20.0 110.0
745 1 1 0 16.666666666666668 20.0 110.0
746 1 1 0 10.0 23.333333333333332 110.0
747 1 1 0 10.0 26.666666666666668 110.0
748 1 1 0 10.0 20.0 113.33333333333333
749 1 1 0 10.0 20.0 116.66666666666667
750 1 1 0 20.0 20.0 110.0
751 1 1 0 23.333333333333332 20.0 110.0
752 1 1 0 26.666666666666668 20.0 110.0
753 1 1 0 20.0 23.333333333333332 110.0
754 1 1 0 20.0 26.666666666666668 110.0
755 1 1 0 20.0 20.0 113.33333333333333
756 1 1 0 20.0 20.0 116.66666666666667
757 1 1 0 0.0 0.0 120.0
758 1 1 0 3.3333333333333335 0.0 120.0
759 1 1 0 6.666666666666667 0.0 120.0
760 1 1 0 0.0 3.3333333333333335 120.0
761 1 1 0 0.0 6.666666666666667 120.0
762 1 1 0 0.0 0.0 123.33333333333333
763 1 1 0 0.0 0.0 126.66666666666667
764 1 1 0 10.0 0.0 120.0
765 1 1 0 13.333333333333334 0.0 120.0
766 1 1 0 16.666666666666668 0.0 120.0
767 1 1 0 10.0 3.3333333333333335 120.0
768 1 1 0 10.0 6.666666666666667 120.0
769 1 1 0 10.0 0.0 123.33333333333333
770 1 1 0 10.0 0.0 126.66666666666667
771 1 1 0 20.0 0.0 120.0
772 1 1 0 23.333333333333332 0.0 120.0
773 1 1 0 26.666666666666668 0.0 120.0
774 1 1 0 20.0 3.3333333333333335 120.0
775 1 1 0 20.0 6.666666666666667 120.0
776 1 1 0 20.0 0.0 123.33333333333333
777 1 1 0 20.0 0.0 126.66666666666667
778 1 1 0 0.0 10.0 120.0
779 1 1 0 3.3333333333333335 10.0 120.0
780 1 1 0 6.666666666666667 10.0 120.0
781 1 1 0 0.0 13.333333333333334 120.0
782 1 1 0 0.0 16.666666666666668 120.0
783 1 1 0 0.0 10.0 123.33333333333333
784 1 1 0 0.0 10.0 126.66666666666667
785 1 1 0 10.0 10.0 120.0
786 1 1 0 13.333333333333334 10.0 120.0
787 1 1 0 16.666666666666668 10.0 120.0
788 1 1 0 10.0 13.333333333333334 120.0
789 1 1 0 10.0 16.666666666666668 120.0
790 1 1 0 10.0 10.0 123.33333333333333
791 1 1 0 10.0 10.0 126.66666666666667
792 1 1 0 20.0 10.0 120.0
793 1 1 0 23.333333333333332 10.0 120.0
794 1 1 0 26.666666666666668 10.0 120.0
795 1 1 0 20.0 13.333333333333334 120.0
796 1 1 0 20.0 16.666666666666668 120.0
797 1 1 0 20.0 10.0 123.33333333333333
798 1 1 0 20.0 10.0 126.66666666666667
799 1 1 0 0.0 20.0 120.0
800 1 1 0 3.3333333333333335 20.0 120.0
801 1 1 0 6.666666666666667 20.0 120.0
802 1 1 0 0.0 23.333333333333332 120.0
803 1 1 0 0.0 26.666666666666668 120.0
804 1 1 0 0.0 20.0 123.33333333333333
805 1 1 0 0.0 20.0 126.66666666666667
806 1 1 0 10.0 20.0 120.0
807 1 1 0 13.333333333333334 20.0 120.0
808 1 1 0 16.666666666666668 20.0 120.0
809 1 1 0 10.0 23.333333333333332 120.0
810 1 1 0 10.0 26.666666666666668 120.0
811 1 1 0 10.0 20.0 123.33333333333333
812 1 1 0 10.0 20.0 126.66666666666667
813 1 1 0 20.0 20.0 120.0
814 1 1 0 23.333333333333332 20.0 120.0
815 1 1 0 26.666666666666668 20.0 120.0
816 1 1 0 20.0 23.333333333333332 120.0
817 1 1 0 20.0 26.666666666666668 120.0